Program Version,EnergyPlus, Version 9.5.0-de239b2e5f, YMD=2022.11.08 09:46
1,5,Environment Title[],Latitude[deg],Longitude[deg],Time Zone[],Elevation[m]
2,8,Day of Simulation[],Month[],Day of Month[],DST Indicator[1=yes 0=no],Hour[],StartMinute[],EndMinute[],DayType
3,5,Cumulative Day of Simulation[],Month[],Day of Month[],DST Indicator[1=yes 0=no],DayType  ! When Daily Report Variables Requested
4,2,Cumulative Days of Simulation[],Month[]  ! When Monthly Report Variables Requested
5,1,Cumulative Days of Simulation[] ! When Run Period Report Variables Requested
6,1,Calendar Year of Simulation[] ! When Annual Report Variables Requested
7,1,Environment,Site Outdoor Air Drybulb Temperature [C] !TimeStep
8,1,ZONE ONE,Zone Windows Total Transmitted Solar Radiation Rate [W] !TimeStep
9,1,ZN001:WALL001,Surface Outside Face Sunlit Fraction [] !TimeStep
10,1,ZN001:WALL001,Surface Outside Face Incident Solar Radiation Rate per Area [W/m2] !TimeStep
11,1,ZN001:WALL001:WIN001,Surface Outside Face Sunlit Fraction [] !TimeStep
12,1,ZN001:WALL001:WIN001,Surface Outside Face Incident Solar Radiation Rate per Area [W/m2] !TimeStep
13,1,ZN001:WALL001:WIN001,Surface Window Transmitted Solar Radiation Rate [W] !TimeStep
14,1,ZN001:WALL001,Surface Inside Face Temperature [C] !TimeStep
15,1,ZN001:WALL001,Surface Outside Face Temperature [C] !TimeStep
16,1,ZN001:WALL001:WIN001,Surface Inside Face Temperature [C] !TimeStep
17,1,ZN001:WALL001:WIN001,Surface Outside Face Temperature [C] !TimeStep
18,1,ZONE ONE,Zone Mean Air Temperature [C] !TimeStep
End of Data Dictionary
1,RUN PERIOD 1,  41.98, -87.92,  -6.00, 201.00
2,1, 1, 1, 0, 1, 0.00,15.00,Tuesday
7,-4.324999999999999
8,0.0
9,0.0
10,0.0
11,0.0
12,0.0
13,0.0
14,4.589672568598812
15,-5.920311229982541
16,2.49465192226819
17,-4.606218686261059
18,5.016301504549861
2,1, 1, 1, 0, 1,15.00,30.00,Tuesday
7,-6.949999999999999
8,0.0
9,0.0
10,0.0
11,0.0
12,0.0
13,0.0
14,4.409714599701062
15,-8.38796842609613
16,1.8862703814511406
17,-6.693847331327902
18,4.922438003680275
2,1, 1, 1, 0, 1,30.00,45.00,Tuesday
7,-9.575
8,0.0
9,0.0
10,0.0
11,0.0
12,0.0
13,0.0
14,4.209955676207418
15,-10.863646192379969
16,1.2727422929041268
17,-8.788007172966957
18,4.796409498351896
2,1, 1, 1, 0, 1,45.00,60.00,Tuesday
7,-12.2
8,0.0
9,0.0
10,0.0
11,0.0
12,0.0
13,0.0
14,3.9943455785828649
15,-13.34593031457745
16,0.6448198127552587
17,-10.889983928843492
18,4.647817666803877
2,1, 1, 1, 0, 2, 0.00,15.00,Tuesday
7,-12.075
8,0.0
9,0.0
10,0.0
11,0.0
12,0.0
13,0.0
14,3.929827103733179
15,-13.147114498759543
16,0.5781491125998173
17,-10.735236824690901
18,4.51373822805718
2,1, 1, 1, 0, 2,15.00,30.00,Tuesday
7,-11.95
8,0.0
9,0.0
10,0.0
11,0.0
12,0.0
13,0.0
14,3.851401090470281
15,-12.969972322173608
16,0.5478589666781204
17,-10.589507774418167
18,4.411457958682989
2,1, 1, 1, 0, 2,30.00,45.00,Tuesday
7,-11.825
8,0.0
9,0.0
10,0.0
11,0.0
12,0.0
13,0.0
14,3.790087986684594
15,-12.791657926999879
16,0.5230053320747174
17,-10.443390608999778
18,4.335901876684451
2,1, 1, 1, 0, 2,45.00,60.00,Tuesday
7,-11.7
8,0.0
9,0.0
10,0.0
11,0.0
12,0.0
13,0.0
14,3.7400308188850617
15,-12.613416917328266
16,0.5108234206494444
17,-10.294621512063486
18,4.276183412694151
2,1, 1, 1, 0, 3, 0.00,15.00,Tuesday
7,-11.549999999999999
8,0.0
9,0.0
10,0.0
11,0.0
12,0.0
13,0.0
14,3.6916898787848169
15,-12.487721301526792
16,0.5083418793181522
17,-10.160025290521049
18,4.223381773270316
2,1, 1, 1, 0, 3,15.00,30.00,Tuesday
7,-11.399999999999999
8,0.0
9,0.0
10,0.0
11,0.0
12,0.0
13,0.0
14,3.646554291407001
15,-12.363409342639113
16,0.5009778832229017
17,-10.006691708538597
18,4.172916341565909
2,1, 1, 1, 0, 3,30.00,45.00,Tuesday
7,-11.25
8,0.0
9,0.0
10,0.0
11,0.0
12,0.0
13,0.0
14,3.602414541794964
15,-12.240644842019972
16,0.5021414306883116
17,-9.871177572329316
18,4.123506547214736
2,1, 1, 1, 0, 3,45.00,60.00,Tuesday
7,-11.1
8,0.0
9,0.0
10,0.0
11,0.0
12,0.0
13,0.0
14,3.5587527335854878
15,-12.119479673484655
16,0.5010756808973724
17,-9.727476036962571
18,4.074958063046169
2,1, 1, 1, 0, 4, 0.00,15.00,Tuesday
7,-11.1
8,0.0
9,0.0
10,0.0
11,0.0
12,0.0
13,0.0
14,3.51139793950886
15,-12.090508757677549
16,0.4489030020525888
17,-9.751415863490707
18,4.026348348999573
2,1, 1, 1, 0, 4,15.00,30.00,Tuesday
7,-11.1
8,0.0
9,0.0
10,0.0
11,0.0
12,0.0
13,0.0
14,3.4644522012355378
15,-12.062658164484472
16,0.4025662596943107
17,-9.782389880163123
18,3.9773315750960136
2,1, 1, 1, 0, 4,30.00,45.00,Tuesday
7,-11.1
8,0.0
9,0.0
10,0.0
11,0.0
12,0.0
13,0.0
14,3.4173297796373167
15,-12.036366658028097
16,0.35698717966113238
17,-9.813148451291454
18,3.9280283747621684
2,1, 1, 1, 0, 4,45.00,60.00,Tuesday
7,-11.1
8,0.0
9,0.0
10,0.0
11,0.0
12,0.0
13,0.0
14,3.370135528697559
15,-12.011502410430105
16,0.31161956535055426
17,-9.843040945367648
18,3.8786484009328214
2,1, 1, 1, 0, 5, 0.00,15.00,Tuesday
7,-10.975
8,0.0
9,0.0
10,0.0
11,0.0
12,0.0
13,0.0
14,3.3285893898821796
15,-11.889460683476799
16,0.30229922229460728
17,-9.756036720911311
18,3.8303659812831079
2,1, 1, 1, 0, 5,15.00,30.00,Tuesday
7,-10.85
8,0.0
9,0.0
10,0.0
11,0.0
12,0.0
13,0.0
14,3.2872504130283004
15,-11.767497088817132
16,0.29095851306806255
17,-9.661078891164948
18,3.78365988718656
2,1, 1, 1, 0, 5,30.00,45.00,Tuesday
7,-10.725
8,0.0
9,0.0
10,0.0
11,0.0
12,0.0
13,0.0
14,3.2469157634449274
15,-11.64551160047282
16,0.27989098516508195
17,-9.565278584438034
18,3.7383124207941527
2,1, 1, 1, 0, 5,45.00,60.00,Tuesday
7,-10.6
8,0.0
9,0.0
10,0.0
11,0.0
12,0.0
13,0.0
14,3.207421547612496
15,-11.523535758097163
16,0.2696069131728791
17,-9.469245597258919
18,3.69395426574382
2,1, 1, 1, 0, 6, 0.00,15.00,Tuesday
7,-10.6
8,0.0
9,0.0
10,0.0
11,0.0
12,0.0
13,0.0
14,3.160833847806422
15,-11.524459225978533
16,0.23012001980816877
17,-9.469744918088054
18,3.648993768396476
2,1, 1, 1, 0, 6,15.00,30.00,Tuesday
7,-10.6
8,0.0
9,0.0
10,0.0
11,0.0
12,0.0
13,0.0
14,3.114873752741898
15,-11.525319025405038
16,0.19162747407551707
17,-9.477012499626938
18,3.602712500844402
2,1, 1, 1, 0, 6,30.00,45.00,Tuesday
7,-10.6
8,0.0
9,0.0
10,0.0
11,0.0
12,0.0
13,0.0
14,3.068375236707626
15,-11.526221121813812
16,0.15331807243148888
17,-9.484882897820285
18,3.5553768990087377
2,1, 1, 1, 0, 6,45.00,60.00,Tuesday
7,-10.6
8,0.0
9,0.0
10,0.0
11,0.0
12,0.0
13,0.0
14,3.0215529977251567
15,-11.527121686145156
16,0.114640668918355
17,-9.492904623286507
18,3.507495401626575
2,1, 1, 1, 0, 7, 0.00,15.00,Tuesday
7,-10.6
8,0.0
9,0.0
10,0.0
11,0.0
12,0.0
13,0.0
14,2.976771113314656
15,-11.503199533090788
16,0.07044164618525883
17,-9.518045242953065
18,3.459751812351859
2,1, 1, 1, 0, 7,15.00,30.00,Tuesday
7,-10.6
8,0.0
9,0.0
10,0.0
11,0.0
12,0.0
13,0.0
14,2.9318534363071375
15,-11.48051762024022
16,0.02799177615543158
17,-9.543287512599364
18,3.4125022585454936
2,1, 1, 1, 0, 7,30.00,45.00,Tuesday
7,-10.6
8,0.0
9,0.0
10,0.0
11,0.0
12,0.0
13,0.0
14,2.887219145133078
15,-11.458988075246424
16,-0.01406029555062105
17,-9.567843681720774
18,3.365731137902641
2,1, 1, 1, 0, 7,45.00,60.00,Tuesday
7,-10.6
8,0.0
9,0.0
10,0.0
11,0.0
12,0.0
13,0.0
14,2.8428781811407637
15,-11.438542723317714
16,-0.05564908420751635
17,-9.591590481721369
18,3.319322933215831
2,1, 1, 1, 0, 8, 0.00,15.00,Tuesday
7,-10.45
8,0.0
9,0.0
10,0.0
11,0.0
12,0.0
13,0.0
14,2.7978562950295307
15,-11.389792233246436
16,-0.07435978267636756
17,-9.542744522687145
18,3.2729190737802469
2,1, 1, 1, 0, 8,15.00,30.00,Tuesday
7,-10.3
8,132.9976888912281
9,1.0
10,22.819555959623899
11,1.0
12,22.819555959623899
13,132.9976888912281
14,2.8688623367492549
15,-9.716423676726017
16,0.2585484332513488
17,-9.193581989315704
18,3.2437007704900955
2,1, 1, 1, 0, 8,30.00,45.00,Tuesday
7,-10.15
8,653.2512827677111
9,1.0
10,109.75755355442667
11,1.0
12,109.75755355442667
13,653.2512827677111
14,3.255936126477702
15,-3.349385255955949
16,1.655237731234081
17,-7.986090676255003
18,3.2793059687973358
2,1, 1, 1, 0, 8,45.00,60.00,Tuesday
7,-10.0
8,1188.64444042444
9,1.0
10,195.8764694434918
11,1.0
12,195.8764694434918
13,1188.64444042444
14,3.7540301008035499
15,3.142006551664468
16,3.2070295306320988
17,-6.7702244172654109
18,3.3859964220958149
2,1, 1, 1, 0, 9, 0.00,15.00,Tuesday
7,-9.725
8,1722.9922176498843
9,1.0
10,278.97248314719988
11,1.0
12,278.97248314719988
13,1722.9922176498843
14,4.144305780320521
15,8.313060370262328
16,4.730809846061675
17,-5.690982370747179
18,3.544029333197473
2,1, 1, 1, 0, 9,15.00,30.00,Tuesday
7,-9.45
8,2287.1257578022807
9,1.0
10,364.91995730569456
11,1.0
12,364.91995730569456
13,2287.1257578022807
14,4.5650160808796749
15,13.392897185431468
16,6.204439959935598
17,-4.625336827502451
18,3.7453324044577736
2,1, 1, 1, 0, 9,30.00,45.00,Tuesday
7,-9.175
8,2661.559110103708
9,1.0
10,420.35879993239237
11,1.0
12,420.35879993239237
13,2661.559110103708
14,4.858883187727174
15,16.15085358684001
16,7.188625608318716
17,-3.9671608189295286
18,3.970297812451866
2,1, 1, 1, 0, 9,45.00,60.00,Tuesday
7,-8.9
8,3050.701309967632
9,1.0
10,478.00138373643099
11,1.0
12,478.00138373643099
13,3050.701309967632
14,5.204262262405966
15,19.14582956027205
16,8.169810313609219
17,-3.285980618340659
18,4.208670041299861
2,1, 1, 1, 0,10, 0.00,15.00,Tuesday
7,-8.350000000000002
8,3448.5190117469435
9,1.0
10,536.9185644770597
11,1.0
12,536.9185644770597
13,3448.5190117469435
14,5.494472947778567
15,20.263447757488114
16,9.178032126378298
17,-2.5741483265882154
18,4.460711710629393
2,1, 1, 1, 0,10,15.00,30.00,Tuesday
7,-7.800000000000001
8,3860.4453924965566
9,1.0
10,598.0969199229219
11,1.0
12,598.0969199229219
13,3860.4453924965566
14,5.812132108354799
15,21.516472605478446
16,10.20259601889586
17,-1.8654744881062016
18,4.736132672728482
2,1, 1, 1, 0,10,30.00,45.00,Tuesday
7,-7.25
8,4131.779647589239
9,1.0
10,637.6133352894237
11,1.0
12,637.6133352894237
13,4131.779647589239
14,6.05751584975549
15,21.576277665686385
16,10.936147733406643
17,-1.3736532979474987
18,5.020956998643985
2,1, 1, 1, 0,10,45.00,60.00,Tuesday
7,-6.7
8,4399.284093276101
9,1.0
10,676.6412284283772
11,1.0
12,676.6412284283772
13,4399.284093276101
14,6.325595018542029
15,21.736527831890816
16,11.643689672476285
17,-0.8853063560591181
18,5.303521645153782
2,1, 1, 1, 0,11, 0.00,15.00,Tuesday
7,-6.275
8,4662.017661191904
9,1.0
10,715.0112779846514
11,1.0
12,715.0112779846514
13,4662.017661191904
14,6.6701583568491948
15,23.834345842198628
16,12.392429607692748
17,-0.16398159220170784
18,5.585894860827019
2,1, 1, 1, 0,11,15.00,30.00,Tuesday
7,-5.85
8,4918.589823307853
9,1.0
10,752.5077794605232
11,1.0
12,752.5077794605232
13,4918.589823307853
14,7.003562822011804
15,25.769549690917505
16,13.133065758187286
17,0.5369521420018373
18,5.872289909903826
2,1, 1, 1, 0,11,30.00,45.00,Tuesday
7,-5.425
8,4844.124925955526
9,1.0
10,742.5988714321785
11,1.0
12,742.5988714321785
13,4844.124925955526
14,7.2013415321495499
15,25.62149890658002
16,13.27624870089204
17,0.8244259936267326
18,6.145110596642759
2,1, 1, 1, 0,11,45.00,60.00,Tuesday
7,-5.0
8,4736.768652834157
9,1.0
10,727.8169025450712
11,1.0
12,727.8169025450712
13,4736.768652834157
14,7.394480433537426
15,25.39250841509218
16,13.331599703037796
17,1.0794773656614325
18,6.391321583428634
2,1, 1, 1, 0,12, 0.00,15.00,Tuesday
7,-4.575
8,4551.459979265003
9,1.0
10,700.3759009170325
11,1.0
12,700.3759009170325
13,4551.459979265003
14,7.529574560796331
15,24.650069631710026
16,13.229491651348667
17,1.2719964708719545
18,6.603628688056469
2,1, 1, 1, 0,12,15.00,30.00,Tuesday
7,-4.15
8,4413.3796595127209
9,1.0
10,681.6705029034473
11,1.0
12,681.6705029034473
13,4413.3796595127209
14,7.686883383276277
15,24.319797189985079
16,13.215601929408877
17,1.5362769591452548
18,6.789773108114347
2,1, 1, 1, 0,12,30.00,45.00,Tuesday
7,-3.7249999999999998
8,3873.658642987225
9,1.0
10,602.01865277251
11,1.0
12,602.01865277251
13,3873.658642987225
14,7.6077974649540709
15,21.29152966303069
16,12.427984434859014
17,1.2991669438506506
18,6.928211209910392
2,1, 1, 1, 0,12,45.00,60.00,Tuesday
7,-3.3
8,3163.0768658589875
9,1.0
10,493.55004396206007
11,1.0
12,493.55004396206007
13,3163.0768658589875
14,7.417481749379305
15,17.11321486006498
16,11.171782468002164
17,0.7992509177130387
18,6.994729906838053
2,1, 1, 1, 0,13, 0.00,15.00,Tuesday
7,-3.0249999999999996
8,2610.061769435032
9,1.0
10,412.335026418112
11,1.0
12,412.335026418112
13,2610.061769435032
14,7.284378577851473
15,14.269072520666425
16,10.17749269254125
17,0.4594973172719392
18,7.003656552459486
2,1, 1, 1, 0,13,15.00,30.00,Tuesday
7,-2.75
8,1910.213902914471
9,1.0
10,305.94037763660148
11,1.0
12,305.94037763660148
13,1910.213902914471
14,6.9887890234854439
15,10.095933223125679
16,8.797341200852543
17,-0.11874840895495709
18,6.963973272539315
2,1, 1, 1, 0,13,30.00,45.00,Tuesday
7,-2.475
8,1743.2254450504825
9,1.0
10,281.0763483922329
11,1.0
12,281.0763483922329
13,1743.2254450504825
14,6.963921262767654
15,9.58288266261394
16,8.471347415956587
17,-0.010524437623530503
18,6.911503917164587
2,1, 1, 1, 0,13,45.00,60.00,Tuesday
7,-2.2
8,1579.7186008820809
9,1.0
10,256.7721209415886
11,1.0
12,256.7721209415886
13,1579.7186008820809
14,6.931128843551264
15,8.976566103871149
16,8.21489234971608
17,0.12215481673280238
18,6.866546128893073
2,1, 1, 1, 0,14, 0.00,15.00,Tuesday
7,-1.9250000000000003
8,1290.0057284061218
9,1.0
10,210.73276284570657
11,1.0
12,210.73276284570657
13,1290.0057284061218
14,6.8001020381782
15,7.4288309797531399
16,7.620987892639448
17,0.02424018153885754
18,6.825771408935201
2,1, 1, 1, 0,14,15.00,30.00,Tuesday
7,-1.6500000000000002
8,1145.1893539086614
9,1.0
10,189.38488290342594
11,1.0
12,189.38488290342594
13,1145.1893539086614
14,6.768152633742278
15,7.023873383536951
16,7.349468951415986
17,0.1340886667355221
18,6.78968729834491
2,1, 1, 1, 0,14,30.00,45.00,Tuesday
7,-1.375
8,1092.310008139625
9,1.0
10,179.3940297802914
11,1.0
12,179.3940297802914
13,1092.310008139625
14,6.763649394123284
15,7.146564696049655
16,7.283860778153098
17,0.3601216842532722
18,6.760015660333152
2,1, 1, 1, 0,14,45.00,60.00,Tuesday
7,-1.1
8,1038.7201351055185
9,1.0
10,169.43349014176136
11,1.0
12,169.43349014176136
13,1038.7201351055185
14,6.756562160589743
15,7.245286376599087
16,7.213362538148431
17,0.5844447890760876
18,6.736504760960255
2,1, 1, 1, 0,15, 0.00,15.00,Tuesday
7,-1.1
8,1093.0600520704975
9,1.0
10,178.15692317953907
11,1.0
12,178.15692317953907
13,1093.0600520704975
14,6.815020704913451
15,8.06303987824767
16,7.3577822526985419
17,0.7236038416419888
18,6.722159078061358
2,1, 1, 1, 0,15,15.00,30.00,Tuesday
7,-1.1
8,1026.719653432651
9,1.0
10,166.40516310952945
11,1.0
12,166.40516310952945
13,1026.719653432651
14,6.768171918302587
15,7.699391376870495
16,7.200041260609908
17,0.6584900379617693
18,6.711612970188124
2,1, 1, 1, 0,15,30.00,45.00,Tuesday
7,-1.1
8,865.3316390620269
9,1.0
10,140.8967369711617
11,1.0
12,140.8967369711617
13,865.3316390620269
14,6.657145875332599
15,6.492359252231945
16,6.772799450046364
17,0.41649821124076427
18,6.6940987625494279
2,1, 1, 1, 0,15,45.00,60.00,Tuesday
7,-1.1
8,711.7843414399451
9,1.0
10,116.57355796743004
11,1.0
12,116.57355796743004
13,711.7843414399451
14,6.545883000927517
15,5.2831572140907439
16,6.335197944201184
17,0.1570296179294246
18,6.66073610286431
2,1, 1, 1, 0,16, 0.00,15.00,Tuesday
7,-1.1
8,564.6747975506065
9,1.0
10,93.14939272689483
11,1.0
12,93.14939272689483
13,564.6747975506065
14,6.4493588706510709
15,4.232285076434832
16,5.9525424619924369
17,-0.01244511333158016
18,6.609981446558517
2,1, 1, 1, 0,16,15.00,30.00,Tuesday
7,-1.1
8,350.3872540776164
9,1.0
10,57.94047897402063
11,1.0
12,57.94047897402063
13,350.3872540776164
14,6.265720589979142
15,2.1067450866532697
16,5.378533129801099
17,-0.3500377582332703
18,6.535192283682734
2,1, 1, 1, 0,16,30.00,45.00,Tuesday
7,-1.1
8,271.557479993974
9,1.0
10,45.38251793443488
11,1.0
12,45.38251793443488
13,271.557479993974
14,6.19454594009906
15,1.494703340110433
16,5.138992991345958
17,-0.4273871152821016
18,6.4461273822467819
2,1, 1, 1, 0,16,45.00,60.00,Tuesday
7,-1.1
8,189.50503850085199
9,1.0
10,32.02625108222755
11,1.0
12,32.02625108222755
13,189.50503850085199
14,6.08666601044405
15,0.6296330992590552
16,4.907344585955684
17,-0.5125545256844362
18,6.354750687441293
2,1, 1, 1, 0,17, 0.00,15.00,Tuesday
7,-1.1
8,103.92472412515429
9,1.0
10,17.762198626050539
11,1.0
12,17.762198626050539
13,103.92472412515429
14,5.950497253247424
15,-0.6240946331049019
16,4.618223814868429
17,-0.7158486203812799
18,6.26259105397261
2,1, 1, 1, 0,17,15.00,30.00,Tuesday
7,-1.1
8,0.0
9,0.0
10,0.0
11,0.0
12,0.0
13,0.0
14,5.766312287947507
15,-2.4623677350416814
16,4.253937686958693
17,-1.0208991313386378
18,6.159680684644844
2,1, 1, 1, 0,17,30.00,45.00,Tuesday
7,-1.1
8,0.0
9,0.0
10,0.0
11,0.0
12,0.0
13,0.0
14,5.712021487481723
15,-2.5993040717132649
16,4.16445551711837
17,-1.0404121152643029
18,6.05998112917954
2,1, 1, 1, 0,17,45.00,60.00,Tuesday
7,-1.1
8,0.0
9,0.0
10,0.0
11,0.0
12,0.0
13,0.0
14,5.642999092875767
15,-2.7921544741323327
16,4.115019861417636
17,-1.0455947392853205
18,5.9763256570564728
2,1, 1, 1, 0,18, 0.00,15.00,Tuesday
7,-1.25
8,0.0
9,0.0
10,0.0
11,0.0
12,0.0
13,0.0
14,5.585520278779105
15,-2.9397432279101389
16,4.027219669426017
17,-1.1828469279379875
18,5.909577282889447
2,1, 1, 1, 0,18,15.00,30.00,Tuesday
7,-1.4
8,0.0
9,0.0
10,0.0
11,0.0
12,0.0
13,0.0
14,5.533251348432307
15,-3.092142712829361
16,3.954243010990467
17,-1.3120723850041146
18,5.854807812477655
2,1, 1, 1, 0,18,30.00,45.00,Tuesday
7,-1.5499999999999999
8,0.0
9,0.0
10,0.0
11,0.0
12,0.0
13,0.0
14,5.48523743607226
15,-3.244044810237673
16,3.8855961327960815
17,-1.4403531354306552
18,5.806803213104968
2,1, 1, 1, 0,18,45.00,60.00,Tuesday
7,-1.7
8,0.0
9,0.0
10,0.0
11,0.0
12,0.0
13,0.0
14,5.43933447443016
15,-3.3961159561337936
16,3.819861031736764
17,-1.56793993892353
18,5.762173762688784
2,1, 1, 1, 0,19, 0.00,15.00,Tuesday
7,-1.825
8,0.0
9,0.0
10,0.0
11,0.0
12,0.0
13,0.0
14,5.419008338040164
15,-3.245940315332335
16,3.757745592470087
17,-1.6840260352227006
18,5.722754572540383
2,1, 1, 1, 0,19,15.00,30.00,Tuesday
7,-1.9500000000000002
8,0.0
9,0.0
10,0.0
11,0.0
12,0.0
13,0.0
14,5.397741169603106
15,-3.177439593106995
16,3.7050076588586196
17,-1.799590201776141
18,5.6902794424225109
2,1, 1, 1, 0,19,30.00,45.00,Tuesday
7,-2.075
8,0.0
9,0.0
10,0.0
11,0.0
12,0.0
13,0.0
14,5.371791885508858
15,-3.250763925816822
16,3.6595014572321249
17,-1.906381295870517
18,5.66323393998083
2,1, 1, 1, 0,19,45.00,60.00,Tuesday
7,-2.2
8,0.0
9,0.0
10,0.0
11,0.0
12,0.0
13,0.0
14,5.348879789497378
15,-3.227039362604243
16,3.610682309760705
17,-2.02274711456198
18,5.6385765317549298
2,1, 1, 1, 0,20, 0.00,15.00,Tuesday
7,-1.9250000000000003
8,0.0
9,0.0
10,0.0
11,0.0
12,0.0
13,0.0
14,5.342701653702128
15,-2.9254917870941616
16,3.6549536981445955
17,-1.812865477798482
18,5.616725595961282
2,1, 1, 1, 0,20,15.00,30.00,Tuesday
7,-1.6500000000000002
8,0.0
9,0.0
10,0.0
11,0.0
12,0.0
13,0.0
14,5.336181543854509
15,-2.6270059479853216
16,3.69945341844857
17,-1.5901745262494842
18,5.598119379226485
2,1, 1, 1, 0,20,30.00,45.00,Tuesday
7,-1.375
8,0.0
9,0.0
10,0.0
11,0.0
12,0.0
13,0.0
14,5.331401833950987
15,-2.3297833396595739
16,3.745453886504947
17,-1.3648660264281035
18,5.582325405392687
2,1, 1, 1, 0,20,45.00,60.00,Tuesday
7,-1.1
8,0.0
9,0.0
10,0.0
11,0.0
12,0.0
13,0.0
14,5.328158150095472
15,-2.0338435156292968
16,3.7934807161618666
17,-1.1373452228348243
18,5.568650183084656
2,1, 1, 1, 0,21, 0.00,15.00,Tuesday
7,-1.25
8,0.0
9,0.0
10,0.0
11,0.0
12,0.0
13,0.0
14,5.282353823482733
15,-2.3164724108965109
16,3.7489442590782007
17,-1.2398661439215176
18,5.550350728365418
2,1, 1, 1, 0,21,15.00,30.00,Tuesday
7,-1.4
8,0.0
9,0.0
10,0.0
11,0.0
12,0.0
13,0.0
14,5.237953917480004
15,-2.533813388156566
16,3.6945430765614448
17,-1.3524347577728123
18,5.522760051885294
2,1, 1, 1, 0,21,30.00,45.00,Tuesday
7,-1.5499999999999999
8,0.0
9,0.0
10,0.0
11,0.0
12,0.0
13,0.0
14,5.1799351771723549
15,-2.8801322256408468
16,3.6397929572708564
17,-1.4579252118722935
18,5.484930595674837
2,1, 1, 1, 0,21,45.00,60.00,Tuesday
7,-1.7
8,0.0
9,0.0
10,0.0
11,0.0
12,0.0
13,0.0
14,5.116573312119254
15,-3.334326397712601
16,3.5804628244881089
17,-1.5516609048969486
18,5.43901409955401
2,1, 1, 1, 0,22, 0.00,15.00,Tuesday
7,-1.5499999999999999
8,0.0
9,0.0
10,0.0
11,0.0
12,0.0
13,0.0
14,5.122780460509204
15,-2.8440998758396307
16,3.5668250927814144
17,-1.4753131509057767
18,5.398651565823117
2,1, 1, 1, 0,22,15.00,30.00,Tuesday
7,-1.4
8,0.0
9,0.0
10,0.0
11,0.0
12,0.0
13,0.0
14,5.119233497956023
15,-2.5121482863279684
16,3.5822814859532174
17,-1.3744079538798815
18,5.371292868343568
2,1, 1, 1, 0,22,30.00,45.00,Tuesday
7,-1.25
8,0.0
9,0.0
10,0.0
11,0.0
12,0.0
13,0.0
14,5.1143050126607199
15,-2.291238836819628
16,3.6017646959109017
17,-1.2630612167729396
18,5.354752459331186
2,1, 1, 1, 0,22,45.00,60.00,Tuesday
7,-1.1
8,0.0
9,0.0
10,0.0
11,0.0
12,0.0
13,0.0
14,5.113380908399284
15,-2.007256094316896
16,3.624522442491184
17,-1.1466492938892544
18,5.343824889553847
2,1, 1, 1, 0,23, 0.00,15.00,Tuesday
7,-1.25
8,0.0
9,0.0
10,0.0
11,0.0
12,0.0
13,0.0
14,5.0672273760351189
15,-2.3106785421192828
16,3.5351738486792785
17,-1.4201532279818139
18,5.32800943143972
2,1, 1, 1, 0,23,15.00,30.00,Tuesday
7,-1.4
8,0.0
9,0.0
10,0.0
11,0.0
12,0.0
13,0.0
14,5.023864635483048
15,-2.6152589854832457
16,3.4337001225652559
17,-1.7142636480818965
18,5.302041906302942
2,1, 1, 1, 0,23,30.00,45.00,Tuesday
7,-1.5499999999999999
8,0.0
9,0.0
10,0.0
11,0.0
12,0.0
13,0.0
14,4.975964391801469
15,-2.9204986108565937
16,3.3316071516813965
17,-2.006250313459418
18,5.2669456398513
2,1, 1, 1, 0,23,45.00,60.00,Tuesday
7,-1.7
8,0.0
9,0.0
10,0.0
11,0.0
12,0.0
13,0.0
14,4.9241903497175889
15,-3.226080796906021
16,3.2258172056587
17,-2.298859757138871
18,5.225657782629072
2,1, 1, 1, 0,24, 0.00,15.00,Tuesday
7,-1.7
8,0.0
9,0.0
10,0.0
11,0.0
12,0.0
13,0.0
14,4.889706718681938
15,-3.2800609676619429
16,3.1787895706050905
17,-2.3610138219951297
18,5.183840637423209
2,1, 1, 1, 0,24,15.00,30.00,Tuesday
7,-1.7
8,0.0
9,0.0
10,0.0
11,0.0
12,0.0
13,0.0
14,4.851111219293177
15,-3.334725888526004
16,3.1360007886836458
17,-2.421602261350017
18,5.1443654876171609
2,1, 1, 1, 0,24,30.00,45.00,Tuesday
7,-1.7
8,0.0
9,0.0
10,0.0
11,0.0
12,0.0
13,0.0
14,4.81556914161554
15,-3.389204125436036
16,3.0924237924583055
17,-2.482366082683029
18,5.107367987891819
2,1, 1, 1, 0,24,45.00,60.00,Tuesday
7,-1.7
8,0.0
9,0.0
10,0.0
11,0.0
12,0.0
13,0.0
14,4.778682247680877
15,-3.4437693762754115
16,3.0502983772463496
17,-2.542701104154162
18,5.0717834468228919
End of Data
 Number of Records Written=        1152
