Program Version,EnergyPlus, Version 9.5.0-de239b2e5f, YMD=2022.11.08 09:46
1,5,Environment Title[],Latitude[deg],Longitude[deg],Time Zone[],Elevation[m]
2,8,Day of Simulation[],Month[],Day of Month[],DST Indicator[1=yes 0=no],Hour[],StartMinute[],EndMinute[],DayType
3,5,Cumulative Day of Simulation[],Month[],Day of Month[],DST Indicator[1=yes 0=no],DayType  ! When Daily Report Variables Requested
4,2,Cumulative Days of Simulation[],Month[]  ! When Monthly Report Variables Requested
5,1,Cumulative Days of Simulation[] ! When Run Period Report Variables Requested
6,1,Calendar Year of Simulation[] ! When Annual Report Variables Requested
7,1,Environment,Site Outdoor Air Drybulb Temperature [C] !TimeStep
8,1,ZONE ONE,Zone Windows Total Transmitted Solar Radiation Rate [W] !TimeStep
9,1,ZN001:WALL001,Surface Outside Face Sunlit Fraction [] !TimeStep
10,1,ZN001:WALL001,Surface Outside Face Incident Solar Radiation Rate per Area [W/m2] !TimeStep
11,1,ZN001:WALL001:WIN001,Surface Outside Face Sunlit Fraction [] !TimeStep
12,1,ZN001:WALL001:WIN001,Surface Outside Face Incident Solar Radiation Rate per Area [W/m2] !TimeStep
13,1,ZN001:WALL001:WIN001,Surface Window Transmitted Solar Radiation Rate [W] !TimeStep
14,1,ZN001:WALL001,Surface Inside Face Temperature [C] !TimeStep
15,1,ZN001:WALL001,Surface Outside Face Temperature [C] !TimeStep
16,1,ZN001:WALL001:WIN001,Surface Inside Face Temperature [C] !TimeStep
17,1,ZN001:WALL001:WIN001,Surface Outside Face Temperature [C] !TimeStep
18,1,ZONE ONE,Zone Mean Air Temperature [C] !TimeStep
End of Data Dictionary
1,RUN PERIOD 1,  41.98, -87.92,  -6.00, 201.00
2,1, 1, 1, 0, 1, 0.00,15.00,Tuesday
7,-4.324999999999999
8,0.0
9,0.0
10,0.0
11,0.0
12,0.0
13,0.0
14,1.485449007625634
15,-5.976955990558894
16,-0.05127834152040123
17,-5.132490390368957
18,1.8313183442013564
2,1, 1, 1, 0, 1,15.00,30.00,Tuesday
7,-6.949999999999999
8,0.0
9,0.0
10,0.0
11,0.0
12,0.0
13,0.0
14,1.311538150053233
15,-8.444889805869379
16,-0.6699044382978059
17,-7.2202126832447679
18,1.7476182739841749
2,1, 1, 1, 0, 1,30.00,45.00,Tuesday
7,-9.575
8,0.0
9,0.0
10,0.0
11,0.0
12,0.0
13,0.0
14,1.1167164600515285
15,-10.921276493158923
16,-1.28995790030217
17,-9.314571788056015
18,1.630830187271311
2,1, 1, 1, 0, 1,45.00,60.00,Tuesday
7,-12.2
8,0.0
9,0.0
10,0.0
11,0.0
12,0.0
13,0.0
14,0.9053726163232383
15,-13.404161525787427
16,-1.923692511410536
17,-11.417236769330657
18,1.4900524377778104
2,1, 1, 1, 0, 2, 0.00,15.00,Tuesday
7,-12.075
8,0.0
9,0.0
10,0.0
11,0.0
12,0.0
13,0.0
14,0.8516156291417586
15,-13.205781728443374
16,-1.9847517426603645
17,-11.270601399970417
18,1.3625695343523936
2,1, 1, 1, 0, 2,15.00,30.00,Tuesday
7,-11.95
8,0.0
9,0.0
10,0.0
11,0.0
12,0.0
13,0.0
14,0.7819123804313605
15,-13.028495252541437
16,-2.0056776413485979
17,-11.12245064083254
18,1.266531078294919
2,1, 1, 1, 0, 2,30.00,45.00,Tuesday
7,-11.825
8,0.0
9,0.0
10,0.0
11,0.0
12,0.0
13,0.0
14,0.7292423753590314
15,-12.849963921832224
16,-2.0220211457874486
17,-10.97398555665427
18,1.197702246639587
2,1, 1, 1, 0, 2,45.00,60.00,Tuesday
7,-11.7
8,0.0
9,0.0
10,0.0
11,0.0
12,0.0
13,0.0
14,0.6879684141261341
15,-12.671495794976451
16,-2.0257356927679668
17,-10.822843735965819
18,1.145553731926952
2,1, 1, 1, 0, 3, 0.00,15.00,Tuesday
7,-11.549999999999999
8,0.0
9,0.0
10,0.0
11,0.0
12,0.0
13,0.0
14,0.6484002248072192
15,-12.547188537451556
16,-2.0222620647092528
17,-10.694292557091729
18,1.101061001319561
2,1, 1, 1, 0, 3,15.00,30.00,Tuesday
7,-11.399999999999999
8,0.0
9,0.0
10,0.0
11,0.0
12,0.0
13,0.0
14,0.6123449569824189
15,-12.42432262502941
16,-2.019518661005236
17,-10.557751245659859
18,1.0594463466858016
2,1, 1, 1, 0, 3,30.00,45.00,Tuesday
7,-11.25
8,0.0
9,0.0
10,0.0
11,0.0
12,0.0
13,0.0
14,0.5773584172696272
15,-12.303073958734803
16,-2.0152568650297555
17,-10.420494335577871
18,1.0191037421738723
2,1, 1, 1, 0, 3,45.00,60.00,Tuesday
7,-11.1
8,0.0
9,0.0
10,0.0
11,0.0
12,0.0
13,0.0
14,0.5429373365849031
15,-12.183503857047171
16,-2.01034262999201
17,-10.283505246351354
18,0.9796947997756146
2,1, 1, 1, 0, 4, 0.00,15.00,Tuesday
7,-11.1
8,0.0
9,0.0
10,0.0
11,0.0
12,0.0
13,0.0
14,0.5049715242098636
15,-12.152526833398952
16,-2.0516731736926205
17,-10.296984958117264
18,0.9403755676731331
2,1, 1, 1, 0, 4,15.00,30.00,Tuesday
7,-11.1
8,0.0
9,0.0
10,0.0
11,0.0
12,0.0
13,0.0
14,0.4674110726707925
15,-12.122749896347476
16,-2.087859438014334
17,-10.31752277441717
18,0.9008031490676823
2,1, 1, 1, 0, 4,30.00,45.00,Tuesday
7,-11.1
8,0.0
9,0.0
10,0.0
11,0.0
12,0.0
13,0.0
14,0.42972311304843238
15,-12.094625433870473
16,-2.12334333999263
17,-10.338086252481276
18,0.8610359910353718
2,1, 1, 1, 0, 4,45.00,60.00,Tuesday
7,-11.1
8,0.0
9,0.0
10,0.0
11,0.0
12,0.0
13,0.0
14,0.3919776117631794
15,-12.068019094929945
16,-2.158644371574667
17,-10.358038599639145
18,0.8212226467300431
2,1, 1, 1, 0, 5, 0.00,15.00,Tuesday
7,-10.975
8,0.0
9,0.0
10,0.0
11,0.0
12,0.0
13,0.0
14,0.359941250670951
15,-11.945748140340378
16,-2.1596048565691037
17,-10.269184937842056
18,0.7824416258710499
2,1, 1, 1, 0, 5,15.00,30.00,Tuesday
7,-10.85
8,0.0
9,0.0
10,0.0
11,0.0
12,0.0
13,0.0
14,0.3280848176902376
15,-11.823576507045639
16,-2.1622908486777989
17,-10.17256935414116
18,0.7451594250227263
2,1, 1, 1, 0, 5,30.00,45.00,Tuesday
7,-10.725
8,0.0
9,0.0
10,0.0
11,0.0
12,0.0
13,0.0
14,0.29716831933821338
15,-11.701384687583845
16,-2.164733225707664
17,-10.07512421690683
18,0.7091905055449784
2,1, 1, 1, 0, 5,45.00,60.00,Tuesday
7,-10.6
8,0.0
9,0.0
10,0.0
11,0.0
12,0.0
13,0.0
14,0.2680564326046468
15,-11.579202842007517
16,-2.166441001976068
17,-9.97745617619455
18,0.6743111292799172
2,1, 1, 1, 0, 6, 0.00,15.00,Tuesday
7,-10.6
8,0.0
9,0.0
10,0.0
11,0.0
12,0.0
13,0.0
14,0.229565968928515
15,-11.580014567809553
16,-2.1951539599425589
17,-9.97896839740531
18,0.6388743112301925
2,1, 1, 1, 0, 6,15.00,30.00,Tuesday
7,-10.6
8,0.0
9,0.0
10,0.0
11,0.0
12,0.0
13,0.0
14,0.1928273672272984
15,-11.580659376979759
16,-2.2260545770879505
17,-9.984258923278049
18,0.6020506170684757
2,1, 1, 1, 0, 6,30.00,45.00,Tuesday
7,-10.6
8,0.0
9,0.0
10,0.0
11,0.0
12,0.0
13,0.0
14,0.1554177797310504
15,-11.581393866339344
16,-2.2566321588449229
17,-9.990292873321323
18,0.5640765673469462
2,1, 1, 1, 0, 6,45.00,60.00,Tuesday
7,-10.6
8,0.0
9,0.0
10,0.0
11,0.0
12,0.0
13,0.0
14,0.11764654008428255
15,-11.582123896740744
16,-2.287536119796755
17,-9.996697646502753
18,0.5254677970369004
2,1, 1, 1, 0, 7, 0.00,15.00,Tuesday
7,-10.6
8,0.0
9,0.0
10,0.0
11,0.0
12,0.0
13,0.0
14,0.08202952537101153
15,-11.556590192746114
16,-2.3239965018637465
17,-10.010989124956211
18,0.48688030369620757
2,1, 1, 1, 0, 7,15.00,30.00,Tuesday
7,-10.6
8,0.0
9,0.0
10,0.0
11,0.0
12,0.0
13,0.0
14,0.04622567544413499
15,-11.532382517136164
16,-2.356891414972665
17,-10.026763741824084
18,0.44875452583512939
2,1, 1, 1, 0, 7,30.00,45.00,Tuesday
7,-10.6
8,0.0
9,0.0
10,0.0
11,0.0
12,0.0
13,0.0
14,0.01066731208681459
15,-11.509399329454702
16,-2.3893928025845527
17,-10.042299535121345
18,0.4111272081591761
2,1, 1, 1, 0, 7,45.00,60.00,Tuesday
7,-10.6
8,0.0
9,0.0
10,0.0
11,0.0
12,0.0
13,0.0
14,-0.02460614688781621
15,-11.48756890796301
16,-2.421499673730409
17,-10.057302666290753
18,0.37388766657926716
2,1, 1, 1, 0, 8, 0.00,15.00,Tuesday
7,-10.45
8,0.0
9,0.0
10,0.0
11,0.0
12,0.0
13,0.0
14,-0.06081734927521023
15,-11.439891371147823
16,-2.434846758432286
17,-10.014271971674646
18,0.3365897693634486
2,1, 1, 1, 0, 8,15.00,30.00,Tuesday
7,-10.3
8,73.34534335214666
9,1.0
10,22.819555959623899
11,1.0
12,22.819555959623899
13,73.34534335214666
14,0.008276385641367804
15,-9.76711324406241
16,-2.0211366301766136
17,-9.615632288177722
18,0.3141126723408179
2,1, 1, 1, 0, 8,30.00,45.00,Tuesday
7,-10.15
8,362.18833652632216
9,1.0
10,109.75755355442667
11,1.0
12,109.75755355442667
13,362.18833652632216
14,0.36359037096814397
15,-3.408535041064765
16,-0.32313885409740808
17,-8.197847132860489
18,0.3467639257374123
2,1, 1, 1, 0, 8,45.00,60.00,Tuesday
7,-10.0
8,664.2378024629105
9,1.0
10,195.8764694434918
11,1.0
12,195.8764694434918
13,664.2378024629105
14,0.8201247891671215
15,3.092654016436263
16,1.500810629002899
17,-6.801451347544912
18,0.4392381319860829
2,1, 1, 1, 0, 9, 0.00,15.00,Tuesday
7,-9.725
8,970.6958060077143
9,1.0
10,278.97248314719988
11,1.0
12,278.97248314719988
13,970.6958060077143
14,1.1480827778845575
15,8.263267687766203
16,3.0927492401734755
17,-5.604847707504291
18,0.5799635182575607
2,1, 1, 1, 0, 9,15.00,30.00,Tuesday
7,-9.45
8,1298.9694259729518
9,1.0
10,364.91995730569456
11,1.0
12,364.91995730569456
13,1298.9694259729518
14,1.5207803049139082
15,13.346237676674838
16,4.66273772276935
17,-4.426688944491161
18,0.760830634684632
2,1, 1, 1, 0, 9,30.00,45.00,Tuesday
7,-9.175
8,1522.766256934811
9,1.0
10,420.35879993239237
11,1.0
12,420.35879993239237
13,1522.766256934811
14,1.7731590327359137
15,16.10562596610858
16,5.687981598514682
17,-3.7150829521391417
18,0.9624211822455913
2,1, 1, 1, 0, 9,45.00,60.00,Tuesday
7,-8.9
8,1756.7569016430487
9,1.0
10,478.00138373643099
11,1.0
12,478.00138373643099
13,1756.7569016430487
14,2.071875329207044
15,19.10133929485665
16,6.719371994423227
17,-2.9742706739509119
18,1.1758878067812176
2,1, 1, 1, 0,10, 0.00,15.00,Tuesday
7,-8.350000000000002
8,1997.1271790708193
9,1.0
10,536.9185644770597
11,1.0
12,536.9185644770597
13,1997.1271790708193
14,2.3108760461644128
15,20.222070445040289
16,7.775326765747025
17,-2.21935789718691
18,1.406609332611719
2,1, 1, 1, 0,10,15.00,30.00,Tuesday
7,-7.800000000000001
8,2246.567610766846
9,1.0
10,598.0969199229219
11,1.0
12,598.0969199229219
13,2246.567610766846
14,2.575366448561589
15,21.477514042769209
16,8.85439678662317
17,-1.4668398367654164
18,1.6526362167564104
2,1, 1, 1, 0,10,30.00,45.00,Tuesday
7,-7.25
8,2414.4322728838017
9,1.0
10,637.6133352894237
11,1.0
12,637.6133352894237
13,2414.4322728838017
14,2.7721110883471207
15,21.539403704264623
16,9.606055491526718
17,-0.9595176777330607
18,1.8994363692860863
2,1, 1, 1, 0,10,45.00,60.00,Tuesday
7,-6.7
8,2579.8453727874687
9,1.0
10,676.6412284283772
11,1.0
12,676.6412284283772
13,2579.8453727874687
14,2.9850407506747329
15,21.701323682936655
16,10.333630988026926
17,-0.45600120514535549
18,2.1381557495365168
2,1, 1, 1, 0,11, 0.00,15.00,Tuesday
7,-6.275
8,2742.1473551359724
9,1.0
10,715.0112779846514
11,1.0
12,715.0112779846514
13,2742.1473551359724
14,3.2746359678079148
15,23.798660596758777
16,11.102137381152034
17,0.3010435117465704
18,2.3727095693925666
2,1, 1, 1, 0,11,15.00,30.00,Tuesday
7,-5.85
8,2900.4237875037467
9,1.0
10,752.5077794605232
11,1.0
12,752.5077794605232
13,2900.4237875037467
14,3.550101372823787
15,25.733503073425106
16,11.856921473350724
17,1.0349568654978612
18,2.608148239916468
2,1, 1, 1, 0,11,30.00,45.00,Tuesday
7,-5.425
8,2858.3881650449454
9,1.0
10,742.5988714321785
11,1.0
12,742.5988714321785
13,2858.3881650449454
14,3.703041105851349
15,25.585270694167055
16,11.946892569050079
17,1.3083654643769478
18,2.8289236735906058
2,1, 1, 1, 0,11,45.00,60.00,Tuesday
7,-5.0
8,2795.6107495911876
9,1.0
10,727.8169025450712
11,1.0
12,727.8169025450712
13,2795.6107495911876
14,3.8519520796457447
15,25.355718805375333
16,11.94409223653713
17,1.5442471407203585
18,3.024194832191211
2,1, 1, 1, 0,12, 0.00,15.00,Tuesday
7,-4.575
8,2686.817893824292
9,1.0
10,700.3759009170325
11,1.0
12,700.3759009170325
13,2686.817893824292
14,3.9513653540375395
15,24.612826309955847
16,11.761720126606975
17,1.701615182297246
18,3.1888543907086359
2,1, 1, 1, 0,12,15.00,30.00,Tuesday
7,-4.15
8,2602.9440241121549
9,1.0
10,681.6705029034473
11,1.0
12,681.6705029034473
13,2602.9440241121549
14,4.069209293334464
15,24.28207254762281
16,11.691387398623647
17,1.9440817473528114
18,3.3301565571458586
2,1, 1, 1, 0,12,30.00,45.00,Tuesday
7,-3.7249999999999998
8,2279.8032483494118
9,1.0
10,602.01865277251
11,1.0
12,602.01865277251
13,2279.8032483494118
14,3.980933441870229
15,21.253595273793754
16,10.752770386207658
17,1.620735040839918
18,3.4302149380701527
2,1, 1, 1, 0,12,45.00,60.00,Tuesday
7,-3.3
8,1858.7873123373893
9,1.0
10,493.55004396206007
11,1.0
12,493.55004396206007
13,1858.7873123373893
14,3.7980529032420504
15,17.074751234109688
16,9.307313354736266
17,0.9991047209009025
18,3.4711966452167886
2,1, 1, 1, 0,13, 0.00,15.00,Tuesday
7,-3.0249999999999996
8,1526.1467895959189
9,1.0
10,412.335026418112
11,1.0
12,412.335026418112
13,1526.1467895959189
14,3.668256775028323
15,14.229729353153907
16,8.192474980835869
17,0.5762865692964851
18,3.465516532561365
2,1, 1, 1, 0,13,15.00,30.00,Tuesday
7,-2.75
8,1110.5483628445498
9,1.0
10,305.94037763660148
11,1.0
12,305.94037763660148
13,1110.5483628445498
14,3.412434031906752
15,10.055737130816503
16,6.640204096571381
17,-0.12222172321293101
18,3.41739200814335
2,1, 1, 1, 0,13,30.00,45.00,Tuesday
7,-2.475
8,1010.3492039078003
9,1.0
10,281.0763483922329
11,1.0
12,281.0763483922329
13,1010.3492039078003
14,3.3932153499262336
15,9.540607852476113
16,6.294134714305073
17,-0.04073859717243522
18,3.357874874794909
2,1, 1, 1, 0,13,45.00,60.00,Tuesday
7,-2.2
8,912.219639333713
9,1.0
10,256.7721209415886
11,1.0
12,256.7721209415886
13,912.219639333713
14,3.3628241980242747
15,8.935263351555327
16,5.999398279879927
17,0.06368274790554551
18,3.308801358222001
2,1, 1, 1, 0,14, 0.00,15.00,Tuesday
7,-1.9250000000000003
8,743.0401234053854
9,1.0
10,210.73276284570657
11,1.0
12,210.73276284570657
13,743.0401234053854
14,3.2578078112877915
15,7.386266643296245
16,5.322933017896901
17,-0.09689497125833668
18,3.2657593733139009
2,1, 1, 1, 0,14,15.00,30.00,Tuesday
7,-1.6500000000000002
8,656.1562134392273
9,1.0
10,189.38488290342594
11,1.0
12,189.38488290342594
13,656.1562134392273
14,3.232526833600052
15,6.978975324348625
16,5.031978383616547
17,-0.014255623962242226
18,3.228946163764733
2,1, 1, 1, 0,14,30.00,45.00,Tuesday
7,-1.375
8,626.9742949442091
9,1.0
10,179.3940297802914
11,1.0
12,179.3940297802914
13,626.9742949442091
14,3.235827521541601
15,7.100755058443249
16,4.939757628481686
17,0.1886970133978707
18,3.200125884613233
2,1, 1, 1, 0,14,45.00,60.00,Tuesday
7,-1.1
8,596.9642645838117
9,1.0
10,169.43349014176136
11,1.0
12,169.43349014176136
13,596.9642645838117
14,3.236514745208032
15,7.197783345426987
16,4.845486295873798
17,0.38961991438804946
18,3.1788729320887767
2,1, 1, 1, 0,15, 0.00,15.00,Tuesday
7,-1.1
8,627.4572591437745
9,1.0
10,178.15692317953907
11,1.0
12,178.15692317953907
13,627.4572591437745
14,3.2847497833946597
15,8.0124360309514
16,5.003822398846808
17,0.5364268930929939
18,3.167788578462607
2,1, 1, 1, 0,15,15.00,30.00,Tuesday
7,-1.1
8,589.212166269285
9,1.0
10,166.40516310952945
11,1.0
12,166.40516310952945
13,589.212166269285
14,3.2492584677656106
15,7.648730259556496
16,4.816511186803098
17,0.4454188094306346
18,3.1607076728103515
2,1, 1, 1, 0,15,30.00,45.00,Tuesday
7,-1.1
8,494.86866717437206
9,1.0
10,140.8967369711617
11,1.0
12,140.8967369711617
13,494.86866717437206
14,3.161020949089917
15,6.440687562088872
16,4.366210211918997
17,0.1633384627491523
18,3.14516416201076
2,1, 1, 1, 0,15,45.00,60.00,Tuesday
7,-1.1
8,405.4841481180382
9,1.0
10,116.57355796743004
11,1.0
12,116.57355796743004
13,405.4841481180382
14,3.0638630817210839
15,5.227226815701626
16,3.9123482487244134
17,-0.13261831765134958
18,3.1147103115728607
2,1, 1, 1, 0,16, 0.00,15.00,Tuesday
7,-1.1
8,320.35759232728005
9,1.0
10,93.14939272689483
11,1.0
12,93.14939272689483
13,320.35759232728005
14,2.975930853336741
15,4.172159958169057
16,3.4762159661565876
17,-0.36535882313802406
18,3.0705089084973409
2,1, 1, 1, 0,16,15.00,30.00,Tuesday
7,-1.1
8,197.96738420180606
9,1.0
10,57.94047897402063
11,1.0
12,57.94047897402063
13,197.96738420180606
14,2.8138673503049809
15,2.0419637488254449
16,2.7554923555790085
17,-0.8097703579325071
18,3.009484442732988
2,1, 1, 1, 0,16,30.00,45.00,Tuesday
7,-1.1
8,152.72573943091258
9,1.0
10,45.38251793443488
11,1.0
12,45.38251793443488
13,152.72573943091258
14,2.7550853675034219
15,1.4245540682774552
16,2.477580659640978
17,-0.9395323520380998
18,2.9394732431321897
2,1, 1, 1, 0,16,45.00,60.00,Tuesday
7,-1.1
8,106.1498910478028
9,1.0
10,32.02625108222755
11,1.0
12,32.02625108222755
13,106.1498910478028
14,2.6641289595435939
15,0.5526402986059676
16,2.2006800832259616
17,-1.0930618643388357
18,2.8667344396397689
2,1, 1, 1, 0,17, 0.00,15.00,Tuesday
7,-1.1
8,58.050174946333168
9,1.0
10,17.762198626050539
11,1.0
12,17.762198626050539
13,58.050174946333168
14,2.544710194420982
15,-0.7104351751316379
16,1.8618481716737279
17,-1.3878625181997678
18,2.7884697910456417
2,1, 1, 1, 0,17,15.00,30.00,Tuesday
7,-1.1
8,0.0
9,0.0
10,0.0
11,0.0
12,0.0
13,0.0
14,2.377369793257742
15,-2.552790559405618
16,1.4471962883190486
17,-1.7413561261986388
18,2.6937083871919356
2,1, 1, 1, 0,17,30.00,45.00,Tuesday
7,-1.1
8,0.0
9,0.0
10,0.0
11,0.0
12,0.0
13,0.0
14,2.330643835789036
15,-2.693808149105917
16,1.3574583325075196
17,-1.8005065196425108
18,2.5990517747559824
2,1, 1, 1, 0,17,45.00,60.00,Tuesday
7,-1.1
8,0.0
9,0.0
10,0.0
11,0.0
12,0.0
13,0.0
14,2.2694469334165574
15,-2.8941693378055119
16,1.2987857232458283
17,-1.86529181723904
18,2.5189731501749108
2,1, 1, 1, 0,18, 0.00,15.00,Tuesday
7,-1.25
8,0.0
9,0.0
10,0.0
11,0.0
12,0.0
13,0.0
14,2.219824885153067
15,-3.0408052728952468
16,1.217817332807897
17,-2.0060360261396115
18,2.4560047733945979
2,1, 1, 1, 0,18,15.00,30.00,Tuesday
7,-1.4
8,0.0
9,0.0
10,0.0
11,0.0
12,0.0
13,0.0
14,2.175230185803585
15,-3.193156445480331
16,1.149795451502655
17,-2.1360565472559758
18,2.4061344393090278
2,1, 1, 1, 0,18,30.00,45.00,Tuesday
7,-1.5499999999999999
8,0.0
9,0.0
10,0.0
11,0.0
12,0.0
13,0.0
14,2.1351593942020297
15,-3.3448756830206625
16,1.085963012319894
17,-2.2655657039894097
18,2.3643315256981198
2,1, 1, 1, 0,18,45.00,60.00,Tuesday
7,-1.7
8,0.0
9,0.0
10,0.0
11,0.0
12,0.0
13,0.0
14,2.0985448702802738
15,-3.4967647892487325
16,1.0253920947396296
17,-2.3941318702491118
18,2.327099248181993
2,1, 1, 1, 0,19, 0.00,15.00,Tuesday
7,-1.825
8,0.0
9,0.0
10,0.0
11,0.0
12,0.0
13,0.0
14,2.0887183947599077
15,-3.335097409269692
16,0.9951080218935431
17,-2.4219985232345495
18,2.296137642674619
2,1, 1, 1, 0,19,15.00,30.00,Tuesday
7,-1.9500000000000002
8,0.0
9,0.0
10,0.0
11,0.0
12,0.0
13,0.0
14,2.0786153237807998
15,-3.256386424296259
16,0.9670930038885786
17,-2.4716912863474365
18,2.2729065216443935
2,1, 1, 1, 0,19,30.00,45.00,Tuesday
7,-2.075
8,0.0
9,0.0
10,0.0
11,0.0
12,0.0
13,0.0
14,2.063389676357691
15,-3.326925118821627
16,0.9318733065049969
17,-2.560258161252932
18,2.25563617815615
2,1, 1, 1, 0,19,45.00,60.00,Tuesday
7,-2.2
8,0.0
9,0.0
10,0.0
11,0.0
12,0.0
13,0.0
14,2.0515334828826949
15,-3.294176918690799
16,0.9056101229759861
17,-2.6255288001767669
18,2.24131352156098
2,1, 1, 1, 0,20, 0.00,15.00,Tuesday
7,-1.9250000000000003
8,0.0
9,0.0
10,0.0
11,0.0
12,0.0
13,0.0
14,2.0556807234442306
15,-2.990348161115203
16,0.9639645081967956
17,-2.395964836647863
18,2.229880448271208
2,1, 1, 1, 0,20,15.00,30.00,Tuesday
7,-1.6500000000000002
8,0.0
9,0.0
10,0.0
11,0.0
12,0.0
13,0.0
14,2.060487878490665
15,-2.6897799015434047
16,1.0227520939986335
17,-2.158412422647473
18,2.221582251570608
2,1, 1, 1, 0,20,30.00,45.00,Tuesday
7,-1.375
8,0.0
9,0.0
10,0.0
11,0.0
12,0.0
13,0.0
14,2.0668273512402939
15,-2.390621149157512
16,1.0831361768355237
17,-1.9192144439891195
18,2.2160434068972285
2,1, 1, 1, 0,20,45.00,60.00,Tuesday
7,-1.1
8,0.0
9,0.0
10,0.0
11,0.0
12,0.0
13,0.0
14,2.074635044545234
15,-2.092834765833879
16,1.145335794367952
17,-1.6785422560408279
18,2.2126466908939315
2,1, 1, 1, 0,21, 0.00,15.00,Tuesday
7,-1.25
8,0.0
9,0.0
10,0.0
11,0.0
12,0.0
13,0.0
14,2.0369575281883116
15,-2.3848062102974656
16,1.0900295727385015
17,-1.834151157142628
18,2.2049641634822709
2,1, 1, 1, 0,21,15.00,30.00,Tuesday
7,-1.4
8,0.0
9,0.0
10,0.0
11,0.0
12,0.0
13,0.0
14,1.9999762441950262
15,-2.607054109456123
16,1.034961112563451
17,-1.975535388409753
18,2.1882002075919395
2,1, 1, 1, 0,21,30.00,45.00,Tuesday
7,-1.5499999999999999
8,0.0
9,0.0
10,0.0
11,0.0
12,0.0
13,0.0
14,1.948840542066536
15,-2.965546319010909
16,0.9663056022384353
17,-2.150726702693703
18,2.1608296849357799
2,1, 1, 1, 0,21,45.00,60.00,Tuesday
7,-1.7
8,0.0
9,0.0
10,0.0
11,0.0
12,0.0
13,0.0
14,1.8924405915840708
15,-3.433553734454825
16,0.884285295526638
17,-2.3570754350015479
18,2.124503897211767
2,1, 1, 1, 0,22, 0.00,15.00,Tuesday
7,-1.5499999999999999
8,0.0
9,0.0
10,0.0
11,0.0
12,0.0
13,0.0
14,1.9098944477643552
15,-2.926887817536524
16,0.91146338914632
17,-2.1571597182676784
18,2.0930281224778559
2,1, 1, 1, 0,22,15.00,30.00,Tuesday
7,-1.4
8,0.0
9,0.0
10,0.0
11,0.0
12,0.0
13,0.0
14,1.9193196048316668
15,-2.583717593988994
16,0.9582634243031407
17,-1.9908150970941279
18,2.0744549950543567
2,1, 1, 1, 0,22,30.00,45.00,Tuesday
7,-1.25
8,0.0
9,0.0
10,0.0
11,0.0
12,0.0
13,0.0
14,1.9262069467294916
15,-2.357806892197917
16,0.9948538490124292
17,-1.8479357371252264
18,2.0670477195465235
2,1, 1, 1, 0,22,45.00,60.00,Tuesday
7,-1.1
8,0.0
9,0.0
10,0.0
11,0.0
12,0.0
13,0.0
14,1.9368524206380753
15,-2.064794688385373
16,1.0387699665954529
17,-1.6694529408587187
18,2.065821603524549
2,1, 1, 1, 0,23, 0.00,15.00,Tuesday
7,-1.25
8,0.0
9,0.0
10,0.0
11,0.0
12,0.0
13,0.0
14,1.8996175976492323
15,-2.3685405409394568
16,0.9558713354812198
17,-1.9495075687028703
18,2.0607790287995226
2,1, 1, 1, 0,23,15.00,30.00,Tuesday
7,-1.4
8,0.0
9,0.0
10,0.0
11,0.0
12,0.0
13,0.0
14,1.8651213619236596
15,-2.673070939105902
16,0.8600174987900573
17,-2.239223080519764
18,2.046335360248227
2,1, 1, 1, 0,23,30.00,45.00,Tuesday
7,-1.5499999999999999
8,0.0
9,0.0
10,0.0
11,0.0
12,0.0
13,0.0
14,1.824864972375321
15,-2.97823010352907
16,0.7632921331581883
17,-2.5289035413265994
18,2.0226547580856337
2,1, 1, 1, 0,23,45.00,60.00,Tuesday
7,-1.7
8,0.0
9,0.0
10,0.0
11,0.0
12,0.0
13,0.0
14,1.7821148137325303
15,-3.283649510008426
16,0.6627723900170395
17,-2.8192176132059787
18,1.992209673778484
2,1, 1, 1, 0,24, 0.00,15.00,Tuesday
7,-1.7
8,0.0
9,0.0
10,0.0
11,0.0
12,0.0
13,0.0
14,1.7573080356200972
15,-3.3373441604531735
16,0.6239035358034926
17,-2.87815561386833
18,1.9604725561063064
2,1, 1, 1, 0,24,15.00,30.00,Tuesday
7,-1.7
8,0.0
9,0.0
10,0.0
11,0.0
12,0.0
13,0.0
14,1.7294059484262137
15,-3.391844017300468
16,0.5889910670173322
17,-2.9364898017332736
18,1.9306334066204066
2,1, 1, 1, 0,24,30.00,45.00,Tuesday
7,-1.7
8,0.0
9,0.0
10,0.0
11,0.0
12,0.0
13,0.0
14,1.7022025517810498
15,-3.446203661515052
16,0.5534635576052551
17,-2.9950459884857425
18,1.90299359737477
2,1, 1, 1, 0,24,45.00,60.00,Tuesday
7,-1.7
8,0.0
9,0.0
10,0.0
11,0.0
12,0.0
13,0.0
14,1.6756189871055472
15,-3.5005624478499954
16,0.5185976239831689
17,-3.0533883355300306
18,1.876765749805942
End of Data
 Number of Records Written=        1152
