Program Version,EnergyPlus, Version 9.5.0-de239b2e5f, YMD=2022.11.08 09:46
1,5,Environment Title[],Latitude[deg],Longitude[deg],Time Zone[],Elevation[m]
2,8,Day of Simulation[],Month[],Day of Month[],DST Indicator[1=yes 0=no],Hour[],StartMinute[],EndMinute[],DayType
3,5,Cumulative Day of Simulation[],Month[],Day of Month[],DST Indicator[1=yes 0=no],DayType  ! When Daily Report Variables Requested
4,2,Cumulative Days of Simulation[],Month[]  ! When Monthly Report Variables Requested
5,1,Cumulative Days of Simulation[] ! When Run Period Report Variables Requested
6,1,Calendar Year of Simulation[] ! When Annual Report Variables Requested
7,1,Environment,Site Outdoor Air Drybulb Temperature [C] !TimeStep
8,1,ZONE ONE,Zone Windows Total Transmitted Solar Radiation Rate [W] !TimeStep
9,1,ZN001:WALL001,Surface Outside Face Sunlit Fraction [] !TimeStep
10,1,ZN001:WALL001,Surface Outside Face Incident Solar Radiation Rate per Area [W/m2] !TimeStep
11,1,ZN001:WALL001:WIN001,Surface Outside Face Sunlit Fraction [] !TimeStep
12,1,ZN001:WALL001:WIN001,Surface Outside Face Incident Solar Radiation Rate per Area [W/m2] !TimeStep
13,1,ZN001:WALL001:WIN001,Surface Window Transmitted Solar Radiation Rate [W] !TimeStep
14,1,ZN001:WALL001,Surface Inside Face Temperature [C] !TimeStep
15,1,ZN001:WALL001,Surface Outside Face Temperature [C] !TimeStep
16,1,ZN001:WALL001:WIN001,Surface Inside Face Temperature [C] !TimeStep
17,1,ZN001:WALL001:WIN001,Surface Outside Face Temperature [C] !TimeStep
18,1,ZONE ONE,Zone Mean Air Temperature [C] !TimeStep
End of Data Dictionary
1,RUN PERIOD 1,  41.98, -87.92,  -6.00, 201.00
2,1, 1, 1, 0, 1, 0.00,15.00,Tuesday
7,-4.324999999999999
8,0.0
9,0.0
10,0.0
11,0.0
12,0.0
13,0.0
14,1.1119001993775038
15,-5.983795287745791
16,-0.35585645895434939
17,-5.19600394831798
18,1.447642536979104
2,1, 1, 1, 0, 1,15.00,30.00,Tuesday
7,-6.949999999999999
8,0.0
9,0.0
10,0.0
11,0.0
12,0.0
13,0.0
14,0.938565938318409
15,-8.451746985140865
16,-0.9759146182474296
17,-7.283716560135645
18,1.3652079928581702
2,1, 1, 1, 0, 1,30.00,45.00,Tuesday
7,-9.575
8,0.0
9,0.0
10,0.0
11,0.0
12,0.0
13,0.0
14,0.7443301011957811
15,-10.928213994717999
16,-1.5969305264438845
17,-9.378081320609227
18,1.2495475148222124
2,1, 1, 1, 0, 1,45.00,60.00,Tuesday
7,-12.2
8,0.0
9,0.0
10,0.0
11,0.0
12,0.0
13,0.0
14,0.5335839179090706
15,-13.411172358773224
16,-2.2314692280220926
17,-11.480813547299875
18,1.1097083715464025
2,1, 1, 1, 0, 2, 0.00,15.00,Tuesday
7,-12.075
8,0.0
9,0.0
10,0.0
11,0.0
12,0.0
13,0.0
14,0.4810141220154
15,-13.212849353797984
16,-2.291871377910411
17,-11.335294859811484
18,0.9829841191408272
2,1, 1, 1, 0, 2,15.00,30.00,Tuesday
7,-11.95
8,0.0
9,0.0
10,0.0
11,0.0
12,0.0
13,0.0
14,0.4123698680055561
15,-13.03554213449274
16,-2.3116955918797545
17,-11.186857504675914
18,0.8876384048816942
2,1, 1, 1, 0, 2,30.00,45.00,Tuesday
7,-11.825
8,0.0
9,0.0
10,0.0
11,0.0
12,0.0
13,0.0
14,0.36072313160267729
15,-12.85698576579758
16,-2.327018440414065
17,-11.03810133266262
18,0.819558923450357
2,1, 1, 1, 0, 2,45.00,60.00,Tuesday
7,-11.7
8,0.0
9,0.0
10,0.0
11,0.0
12,0.0
13,0.0
14,0.32048852085288229
15,-12.678490578572263
16,-2.329727545809078
17,-10.886667660751641
18,0.768271646593074
2,1, 1, 1, 0, 3, 0.00,15.00,Tuesday
7,-11.549999999999999
8,0.0
9,0.0
10,0.0
11,0.0
12,0.0
13,0.0
14,0.28195813898057489
15,-12.554350498441945
16,-2.3255722267998069
17,-10.758879860174773
18,0.7247425803152331
2,1, 1, 1, 0, 3,15.00,30.00,Tuesday
7,-11.399999999999999
8,0.0
9,0.0
10,0.0
11,0.0
12,0.0
13,0.0
14,0.24697441544761965
15,-12.431658431661843
16,-2.322111350906198
17,-10.623231951139929
18,0.684160379662849
2,1, 1, 1, 0, 3,30.00,45.00,Tuesday
7,-11.25
8,0.0
9,0.0
10,0.0
11,0.0
12,0.0
13,0.0
14,0.21308132769394967
15,-12.31059220474175
16,-2.3171114589797527
17,-10.486900249181645
18,0.6448880512309624
2,1, 1, 1, 0, 3,45.00,60.00,Tuesday
7,-11.1
8,0.0
9,0.0
10,0.0
11,0.0
12,0.0
13,0.0
14,0.17976302399747688
15,-12.191213564809809
16,-2.311453718525911
17,-10.350867351323132
18,0.6065678986786645
2,1, 1, 1, 0, 4, 0.00,15.00,Tuesday
7,-11.1
8,0.0
9,0.0
10,0.0
11,0.0
12,0.0
13,0.0
14,0.1429218971687824
15,-12.159995607356283
16,-2.3514597387217579
17,-10.363046063035313
18,0.5683606257672681
2,1, 1, 1, 0, 4,15.00,30.00,Tuesday
7,-11.1
8,0.0
9,0.0
10,0.0
11,0.0
12,0.0
13,0.0
14,0.10648697336320554
15,-12.129987209802941
16,-2.3864156039811634
17,-10.382279813901278
18,0.5299207114271115
2,1, 1, 1, 0, 4,30.00,45.00,Tuesday
7,-11.1
8,0.0
9,0.0
10,0.0
11,0.0
12,0.0
13,0.0
14,0.06993107639090938
15,-12.101642451950255
16,-2.4206773600590738
17,-10.401572356481268
18,0.491298041491401
2,1, 1, 1, 0, 4,45.00,60.00,Tuesday
7,-11.1
8,0.0
9,0.0
10,0.0
11,0.0
12,0.0
13,0.0
14,0.03331961819338182
15,-12.07482667902561
16,-2.4547607017823909
17,-10.42028887133489
18,0.45263355765154558
2,1, 1, 1, 0, 5, 0.00,15.00,Tuesday
7,-10.975
8,0.0
9,0.0
10,0.0
11,0.0
12,0.0
13,0.0
14,0.0024262361034730415
15,-11.95252788705632
16,-2.4547235413637624
17,-10.331215944618009
18,0.41499363943850939
2,1, 1, 1, 0, 5,15.00,30.00,Tuesday
7,-10.85
8,0.0
9,0.0
10,0.0
11,0.0
12,0.0
13,0.0
14,-0.028289989463384597
15,-11.830331200581633
16,-2.4563725672257989
17,-10.23440449361965
18,0.3788430566327713
2,1, 1, 1, 0, 5,30.00,45.00,Tuesday
7,-10.725
8,0.0
9,0.0
10,0.0
11,0.0
12,0.0
13,0.0
14,-0.057074944154282169
15,-11.708114547704078
16,-2.4577812265867466
17,-10.136765152297585
18,0.34411882575348637
2,1, 1, 1, 0, 5,45.00,60.00,Tuesday
7,-10.6
8,0.0
9,0.0
10,0.0
11,0.0
12,0.0
13,0.0
14,-0.08607351401460484
15,-11.58594191844759
16,-2.458146643370924
17,-10.038828328557884
18,0.31043269284750238
2,1, 1, 1, 0, 6, 0.00,15.00,Tuesday
7,-10.6
8,0.0
9,0.0
10,0.0
11,0.0
12,0.0
13,0.0
14,-0.12334608702744016
15,-11.586696106208333
16,-2.4862047391121679
17,-10.040156442689636
18,0.27610402549656318
2,1, 1, 1, 0, 6,15.00,30.00,Tuesday
7,-10.6
8,0.0
9,0.0
10,0.0
11,0.0
12,0.0
13,0.0
14,-0.15901886624234416
15,-11.587325597688669
16,-2.516175879263983
17,-10.045222620052983
18,0.24036017970952554
2,1, 1, 1, 0, 6,30.00,45.00,Tuesday
7,-10.6
8,0.0
9,0.0
10,0.0
11,0.0
12,0.0
13,0.0
14,-0.19536099925990789
15,-11.588039685658862
16,-2.5458471749391267
17,-10.051067260576815
18,0.20346969565411084
2,1, 1, 1, 0, 6,45.00,60.00,Tuesday
7,-10.6
8,0.0
9,0.0
10,0.0
11,0.0
12,0.0
13,0.0
14,-0.23206447827035282
15,-11.588749442206574
16,-2.5758432045934116
17,-10.057290013809507
18,0.1659529553379537
2,1, 1, 1, 0, 7, 0.00,15.00,Tuesday
7,-10.6
8,0.0
9,0.0
10,0.0
11,0.0
12,0.0
13,0.0
14,-0.26658510027300899
15,-11.56302174952873
16,-2.6110362495906545
17,-10.070517956220499
18,0.1284673978477824
2,1, 1, 1, 0, 7,15.00,30.00,Tuesday
7,-10.6
8,0.0
9,0.0
10,0.0
11,0.0
12,0.0
13,0.0
14,-0.3012930630934007
15,-11.538630169165835
16,-2.642757813457365
17,-10.085157924339797
18,0.09144838685586324
2,1, 1, 1, 0, 7,30.00,45.00,Tuesday
7,-10.6
8,0.0
9,0.0
10,0.0
11,0.0
12,0.0
13,0.0
14,-0.33575694675619435
15,-11.515471938337639
16,-2.674100621259413
17,-10.09958199973346
18,0.054928666347665879
2,1, 1, 1, 0, 7,45.00,60.00,Tuesday
7,-10.6
8,0.0
9,0.0
10,0.0
11,0.0
12,0.0
13,0.0
14,-0.36993802986073506
15,-11.493474828748898
16,-2.7050591533343324
17,-10.113506077296279
18,0.018795778243240647
2,1, 1, 1, 0, 8, 0.00,15.00,Tuesday
7,-10.45
8,0.0
9,0.0
10,0.0
11,0.0
12,0.0
13,0.0
14,-0.40509143533370536
15,-11.445926235799372
16,-2.7177883291724358
17,-10.071219610252513
18,-0.017405592956515907
2,1, 1, 1, 0, 8,15.00,30.00,Tuesday
7,-10.3
8,67.64203074368203
9,1.0
10,22.819555959623899
11,1.0
12,22.819555959623899
13,67.64203074368203
14,-0.336070550888849
15,-9.773207228956386
16,-2.3067482178565799
17,-9.676746016358607
18,-0.039165717454734769
2,1, 1, 1, 0, 8,30.00,45.00,Tuesday
7,-10.15
8,334.02467661363615
9,1.0
10,109.75755355442667
11,1.0
12,109.75755355442667
13,334.02467661363615
14,0.015903441506657288
15,-3.4156523732388535
16,-0.6178006276413726
17,-8.270196404057629
18,-0.00728120654400561
2,1, 1, 1, 0, 8,45.00,60.00,Tuesday
7,-10.0
8,612.5868637575823
9,1.0
10,195.8764694434918
11,1.0
12,195.8764694434918
13,612.5868637575823
14,0.4631183232038344
15,3.0829344406189298
16,1.192953127589817
17,-6.883075810337573
18,0.08312386528908013
2,1, 1, 1, 0, 9, 0.00,15.00,Tuesday
7,-9.725
8,895.2147819050667
9,1.0
10,278.97248314719988
11,1.0
12,278.97248314719988
13,895.2147819050667
14,0.7887119408257279
15,8.257955618496199
16,2.7751581708628239
17,-5.6901478757260979
18,0.22092131137696767
2,1, 1, 1, 0, 9,15.00,30.00,Tuesday
7,-9.45
8,1197.9619404727774
9,1.0
10,364.91995730569456
11,1.0
12,364.91995730569456
13,1197.9619404727774
14,1.1546382416176869
15,13.340503218382688
16,4.338741342455819
17,-4.513819165286236
18,0.3982189719784906
2,1, 1, 1, 0, 9,30.00,45.00,Tuesday
7,-9.175
8,1404.3563948226102
9,1.0
10,420.35879993239237
11,1.0
12,420.35879993239237
13,1404.3563948226102
14,1.4016802865362075
15,16.10017695652533
16,5.361297290581319
17,-3.801062209214649
18,0.5959045464856674
2,1, 1, 1, 0, 9,45.00,60.00,Tuesday
7,-8.9
8,1620.1519949209449
9,1.0
10,478.00138373643099
11,1.0
12,478.00138373643099
13,1620.1519949209449
14,1.6942123310341149
15,19.095952479528508
16,6.390328272692955
17,-3.0592425227921469
18,0.8054031486518976
2,1, 1, 1, 0,10, 0.00,15.00,Tuesday
7,-8.350000000000002
8,1841.831149350393
9,1.0
10,536.9185644770597
11,1.0
12,536.9185644770597
13,1841.831149350393
14,1.9264474073405707
15,20.21706316431001
16,7.444628337529025
17,-2.2994157269127415
18,1.0317004598807534
2,1, 1, 1, 0,10,15.00,30.00,Tuesday
7,-7.800000000000001
8,2071.8751654850418
9,1.0
10,598.0969199229219
11,1.0
12,598.0969199229219
13,2071.8751654850418
14,2.1836555461383715
15,21.472774636181766
16,8.521311409719033
17,-1.5427067079742756
18,1.2726087099653756
2,1, 1, 1, 0,10,30.00,45.00,Tuesday
7,-7.25
8,2226.6867202033206
9,1.0
10,637.6133352894237
11,1.0
12,637.6133352894237
13,2226.6867202033206
14,2.3736683816265229
15,21.53491687374847
16,9.270985841550158
17,-1.030952023330542
18,1.5137309846657748
2,1, 1, 1, 0,10,45.00,60.00,Tuesday
7,-6.7
8,2379.2373454743526
9,1.0
10,676.6412284283772
11,1.0
12,676.6412284283772
13,2379.2373454743526
14,2.579278613666508
15,21.697036941292088
16,9.996502646467093
17,-0.5234650812711834
18,1.7464235872081593
2,1, 1, 1, 0,11, 0.00,15.00,Tuesday
7,-6.275
8,2528.9187727882015
9,1.0
10,715.0112779846514
11,1.0
12,715.0112779846514
13,2528.9187727882015
14,2.86166166514159
15,23.794308453793783
16,10.761893791026921
17,0.23406460807132135
18,1.9746376349284823
2,1, 1, 1, 0,11,15.00,30.00,Tuesday
7,-5.85
8,2674.8876757192817
9,1.0
10,752.5077794605232
11,1.0
12,752.5077794605232
13,2674.8876757192817
14,3.129633399403041
15,25.72910568773127
16,11.513500321438244
17,0.9683947149319465
18,2.2034145415839125
2,1, 1, 1, 0,11,30.00,45.00,Tuesday
7,-5.425
8,2636.1207310607476
9,1.0
10,742.5988714321785
11,1.0
12,742.5988714321785
13,2636.1207310607476
14,3.2769831438731327
15,25.580854833732955
16,11.598557428470713
17,1.2414203514541669
18,2.4175520468174098
2,1, 1, 1, 0,11,45.00,60.00,Tuesday
7,-5.0
8,2578.2248692096638
9,1.0
10,727.8169025450712
11,1.0
12,727.8169025450712
13,2578.2248692096638
14,3.4204533084430199
15,25.351234702356114
16,11.591191408470934
17,1.4768761152420212
18,2.60652567619089
2,1, 1, 1, 0,12, 0.00,15.00,Tuesday
7,-4.575
8,2477.8917143269006
9,1.0
10,700.3759009170325
11,1.0
12,700.3759009170325
13,2477.8917143269006
14,3.515568477807297
15,24.60829061091945
16,11.405163505649057
17,1.634372154836683
18,2.7654911977700395
2,1, 1, 1, 0,12,15.00,30.00,Tuesday
7,-4.15
8,2400.539852376754
9,1.0
10,681.6705029034473
11,1.0
12,681.6705029034473
13,2400.539852376754
14,3.6288109331916647
15,24.27748209547473
16,11.329962129581304
17,1.8757595164036048
18,2.9015577445158415
2,1, 1, 1, 0,12,30.00,45.00,Tuesday
7,-3.7249999999999998
8,2102.5264095363938
9,1.0
10,602.01865277251
11,1.0
12,602.01865277251
13,2102.5264095363938
14,3.5401739184852869
15,21.248993410906647
16,10.386849636377179
17,1.5519342656590425
18,2.9974053902219528
2,1, 1, 1, 0,12,45.00,60.00,Tuesday
7,-3.3
8,1714.2485504966533
9,1.0
10,493.55004396206007
11,1.0
12,493.55004396206007
13,1714.2485504966533
14,3.3584587578707589
15,17.070098864422005
16,8.941848423011152
17,0.9320644844799517
18,3.036135663774143
2,1, 1, 1, 0,13, 0.00,15.00,Tuesday
7,-3.0249999999999996
8,1407.474058245071
9,1.0
10,412.335026418112
11,1.0
12,412.335026418112
13,1407.474058245071
14,3.2306147609158426
15,14.224999255710502
16,7.8251683774021789
17,0.5079669813644046
18,3.0293029493112528
2,1, 1, 1, 0,13,15.00,30.00,Tuesday
7,-2.75
8,1024.1924445184705
9,1.0
10,305.94037763660148
11,1.0
12,305.94037763660148
13,1024.1924445184705
14,2.9829942446130426
15,10.050985295567552
16,6.275226009034554
17,-0.18958311402826667
18,2.980245116550807
2,1, 1, 1, 0,13,30.00,45.00,Tuesday
7,-2.475
8,931.7847430949557
9,1.0
10,281.0763483922329
11,1.0
12,281.0763483922329
13,931.7847430949557
14,2.962532043725537
15,9.535239867252632
16,5.9322496537655529
17,-0.10838425517840733
18,2.9204394421888879
2,1, 1, 1, 0,13,45.00,60.00,Tuesday
7,-2.2
8,841.2857049772218
9,1.0
10,256.7721209415886
11,1.0
12,256.7721209415886
13,841.2857049772218
14,2.9325939597241406
15,8.930417092331473
16,5.636035035054533
17,-0.004930100885758293
18,2.871473808485733
2,1, 1, 1, 0,14, 0.00,15.00,Tuesday
7,-1.9250000000000003
8,685.2615390982494
9,1.0
10,210.73276284570657
11,1.0
12,210.73276284570657
13,685.2615390982494
14,2.8307841619735587
15,7.3813502985590209
16,4.962821595883838
17,-0.16498368686376353
18,2.8289021267589278
2,1, 1, 1, 0,14,15.00,30.00,Tuesday
7,-1.6500000000000002
8,605.1336967505015
9,1.0
10,189.38488290342594
11,1.0
12,189.38488290342594
13,605.1336967505015
14,2.806225016230646
15,6.972553790078225
16,4.672965068517556
17,-0.08393760145190754
18,2.7927246111065164
2,1, 1, 1, 0,14,30.00,45.00,Tuesday
7,-1.375
8,578.2209557667695
9,1.0
10,179.3940297802914
11,1.0
12,179.3940297802914
13,578.2209557667695
14,2.8107226897471699
15,7.0952303705522559
16,4.58279269783975
17,0.11863339180121102
18,2.7646222680746108
2,1, 1, 1, 0,14,45.00,60.00,Tuesday
7,-1.1
8,550.5444966559285
9,1.0
10,169.43349014176136
11,1.0
12,169.43349014176136
13,550.5444966559285
14,2.8119702220737436
15,7.192009722808965
16,4.490774639011647
17,0.3191379328917492
18,2.744187226833484
2,1, 1, 1, 0,15, 0.00,15.00,Tuesday
7,-1.1
8,578.6663648103918
9,1.0
10,178.15692317953907
11,1.0
12,178.15692317953907
13,578.6663648103918
14,2.8593489013041517
15,8.006335124214365
16,4.6479411209119239
17,0.4636770917072113
18,2.73382020013666
2,1, 1, 1, 0,15,15.00,30.00,Tuesday
7,-1.1
8,543.3951992560864
9,1.0
10,166.40516310952945
11,1.0
12,166.40516310952945
13,543.3951992560864
14,2.8251563579809328
15,7.642629641864456
16,4.462057965440749
17,0.3719596186726335
18,2.727381965866936
2,1, 1, 1, 0,15,30.00,45.00,Tuesday
7,-1.1
8,456.38782326485878
9,1.0
10,140.8967369711617
11,1.0
12,140.8967369711617
13,456.38782326485878
14,2.7390576329778129
15,6.434505057961333
16,4.0167729173899719
17,0.08183628667279663
18,2.712704593774106
2,1, 1, 1, 0,15,45.00,60.00,Tuesday
7,-1.1
8,373.95381846389446
9,1.0
10,116.57355796743004
11,1.0
12,116.57355796743004
13,373.95381846389446
14,2.645465748089688
15,5.221637311633922
16,3.5646782203745035
17,-0.2078932474020121
18,2.6833665446438288
2,1, 1, 1, 0,16, 0.00,15.00,Tuesday
7,-1.1
8,295.44667894097128
9,1.0
10,93.14939272689483
11,1.0
12,93.14939272689483
13,295.44667894097128
14,2.5568308369949945
15,4.164410545484991
16,3.132692073310295
17,-0.4416207286723193
18,2.6406404672552115
2,1, 1, 1, 0,16,15.00,30.00,Tuesday
7,-1.1
8,182.57349787203038
9,1.0
10,57.94047897402063
11,1.0
12,57.94047897402063
13,182.57349787203038
14,2.397695486299926
15,2.0340375039167135
16,2.4167402231698817
17,-0.8875023002638045
18,2.5816204382107319
2,1, 1, 1, 0,16,30.00,45.00,Tuesday
7,-1.1
8,140.84983026582183
9,1.0
10,45.38251793443488
11,1.0
12,45.38251793443488
13,140.84983026582183
14,2.340506863233196
15,1.4160900256147587
16,2.138176803776048
17,-1.0214250458756169
18,2.5139974088713838
2,1, 1, 1, 0,16,45.00,60.00,Tuesday
7,-1.1
8,97.89570633299509
9,1.0
10,32.02625108222755
11,1.0
12,32.02625108222755
13,97.89570633299509
14,2.25150476043551
15,0.5433195318104617
16,1.860681441361578
17,-1.180183680621326
18,2.443839003410333
2,1, 1, 1, 0,17, 0.00,15.00,Tuesday
7,-1.1
8,53.536210193244389
9,1.0
10,17.762198626050539
11,1.0
12,17.762198626050539
13,53.536210193244389
14,2.1340616625334407
15,-0.7208914333867552
16,1.5230743150870013
17,-1.476240755722074
18,2.3684071394742687
2,1, 1, 1, 0,17,15.00,30.00,Tuesday
7,-1.1
8,0.0
9,0.0
10,0.0
11,0.0
12,0.0
13,0.0
14,1.9689486894799853
15,-2.56367901601375
16,1.1123491791499305
17,-1.824288168688554
18,2.2766808378201839
2,1, 1, 1, 0,17,30.00,45.00,Tuesday
7,-1.1
8,0.0
9,0.0
10,0.0
11,0.0
12,0.0
13,0.0
14,1.924030062892692
15,-2.705103239720514
16,1.0231397039251534
17,-1.8875312903236364
18,2.1836197084534096
2,1, 1, 1, 0,17,45.00,60.00,Tuesday
7,-1.1
8,0.0
9,0.0
10,0.0
11,0.0
12,0.0
13,0.0
14,1.8641553852015858
15,-2.9063718163899545
16,0.9645945195512695
17,-1.9565542116986308
18,2.104061441110293
2,1, 1, 1, 0,18, 0.00,15.00,Tuesday
7,-1.25
8,0.0
9,0.0
10,0.0
11,0.0
12,0.0
13,0.0
14,1.8155111294215707
15,-3.052910103634865
16,0.8847360376801134
17,-2.0971014649377937
18,2.0412712256734948
2,1, 1, 1, 0,18,15.00,30.00,Tuesday
7,-1.4
8,0.0
9,0.0
10,0.0
11,0.0
12,0.0
13,0.0
14,1.7717502946501834
15,-3.2052641975209434
16,0.8172541462311642
17,-2.227226081289359
18,1.9916790044499822
2,1, 1, 1, 0,18,30.00,45.00,Tuesday
7,-1.5499999999999999
8,0.0
9,0.0
10,0.0
11,0.0
12,0.0
13,0.0
14,1.7335494079938836
15,-3.356964130388622
16,0.7539077964275975
17,-2.3568438014061714
18,1.9504933890151133
2,1, 1, 1, 0,18,45.00,60.00,Tuesday
7,-1.7
8,0.0
9,0.0
10,0.0
11,0.0
12,0.0
13,0.0
14,1.6968371541905648
15,-3.5089064801723066
16,0.6941979276437564
17,-2.4854150989694405
18,1.9140473200298168
2,1, 1, 1, 0,19, 0.00,15.00,Tuesday
7,-1.825
8,0.0
9,0.0
10,0.0
11,0.0
12,0.0
13,0.0
14,1.6882804179658436
15,-3.3457766036341796
16,0.6663403303660971
17,-2.5066489463657719
18,1.883937409825241
2,1, 1, 1, 0,19,15.00,30.00,Tuesday
7,-1.9500000000000002
8,0.0
9,0.0
10,0.0
11,0.0
12,0.0
13,0.0
14,1.679501075907635
15,-3.2658602264680778
16,0.6409474744826298
17,-2.5499547531806
18,1.8616352356145445
2,1, 1, 1, 0,19,30.00,45.00,Tuesday
7,-2.075
8,0.0
9,0.0
10,0.0
11,0.0
12,0.0
13,0.0
14,1.6655097842041574
15,-3.3360714832567455
16,0.6068418827049982
17,-2.6367192067651787
18,1.8453850596946802
2,1, 1, 1, 0,19,45.00,60.00,Tuesday
7,-2.2
8,0.0
9,0.0
10,0.0
11,0.0
12,0.0
13,0.0
14,1.6549262487040062
15,-3.302241085170651
16,0.5831264433214756
17,-2.6964487427482028
18,1.8321883307136849
2,1, 1, 1, 0,20, 0.00,15.00,Tuesday
7,-1.9250000000000003
8,0.0
9,0.0
10,0.0
11,0.0
12,0.0
13,0.0
14,1.6602318614625143
15,-2.998133453684101
16,0.6431925422841687
17,-2.4646521883815355
18,1.8219169573032513
2,1, 1, 1, 0,20,15.00,30.00,Tuesday
7,-1.6500000000000002
8,0.0
9,0.0
10,0.0
11,0.0
12,0.0
13,0.0
14,1.6663903472329643
15,-2.6973106086257294
16,0.7036837005068719
17,-2.2254665576657546
18,1.81478167577215
2,1, 1, 1, 0,20,30.00,45.00,Tuesday
7,-1.375
8,0.0
9,0.0
10,0.0
11,0.0
12,0.0
13,0.0
14,1.6740863341262087
15,-2.39791765309219
16,0.7658251758386427
17,-1.9847048452742229
18,1.8104110081747727
2,1, 1, 1, 0,20,45.00,60.00,Tuesday
7,-1.1
8,0.0
9,0.0
10,0.0
11,0.0
12,0.0
13,0.0
14,1.6832977632201037
15,-2.0999084846532569
16,0.8297804119758325
17,-1.74253251630239
18,1.8081864495594254
2,1, 1, 1, 0,21, 0.00,15.00,Tuesday
7,-1.25
8,0.0
9,0.0
10,0.0
11,0.0
12,0.0
13,0.0
14,1.6466905369244747
15,-2.3930365687594468
16,0.7731291103592639
17,-1.903997438358033
18,1.8017812888447163
2,1, 1, 1, 0,21,15.00,30.00,Tuesday
7,-1.4
8,0.0
9,0.0
10,0.0
11,0.0
12,0.0
13,0.0
14,1.610492086997994
15,-2.6158671472480434
16,0.7180399991210607
17,-2.0484610261914328
18,1.786383567030135
2,1, 1, 1, 0,21,30.00,45.00,Tuesday
7,-1.5499999999999999
8,0.0
9,0.0
10,0.0
11,0.0
12,0.0
13,0.0
14,1.5601332990632984
15,-2.9758158474479918
16,0.6478038365379462
17,-2.230898045117897
18,1.76036109004506
2,1, 1, 1, 0,21,45.00,60.00,Tuesday
7,-1.7
8,0.0
9,0.0
10,0.0
11,0.0
12,0.0
13,0.0
14,1.5045695698268238
15,-3.4454599300725188
16,0.5641988365505313
17,-2.446175624171701
18,1.725281950481195
2,1, 1, 1, 0,22, 0.00,15.00,Tuesday
7,-1.5499999999999999
8,0.0
9,0.0
10,0.0
11,0.0
12,0.0
13,0.0
14,1.5233168134496813
15,-2.936820839644979
16,0.59540115044922
17,-2.2362564517509329
18,1.6949067101159748
2,1, 1, 1, 0,22,15.00,30.00,Tuesday
7,-1.4
8,0.0
9,0.0
10,0.0
11,0.0
12,0.0
13,0.0
14,1.5343317646527415
15,-2.5923037881961208
16,0.6455249162645487
17,-2.0630243497056428
18,1.6773421760805798
2,1, 1, 1, 0,22,30.00,45.00,Tuesday
7,-1.25
8,0.0
9,0.0
10,0.0
11,0.0
12,0.0
13,0.0
14,1.5426846710001783
15,-2.365792573129517
16,0.684165099000893
17,-1.9167381905180037
18,1.6709413974547909
2,1, 1, 1, 0,22,45.00,60.00,Tuesday
7,-1.1
8,0.0
9,0.0
10,0.0
11,0.0
12,0.0
13,0.0
14,1.5547542696430324
15,-2.0716943593349028
16,0.7309959086827576
17,-1.7319970713159592
18,1.670788267470352
2,1, 1, 1, 0,23, 0.00,15.00,Tuesday
7,-1.25
8,0.0
9,0.0
10,0.0
11,0.0
12,0.0
13,0.0
14,1.5186865854036007
15,-2.3755013196147547
16,0.6484543844690052
17,-2.0119585563155057
18,1.6670088305499227
2,1, 1, 1, 0,23,15.00,30.00,Tuesday
7,-1.4
8,0.0
9,0.0
10,0.0
11,0.0
12,0.0
13,0.0
14,1.4850035247068554
15,-2.6800349636186135
16,0.5530806473503276
17,-2.301437503249531
18,1.6539658365259514
2,1, 1, 1, 0,23,30.00,45.00,Tuesday
7,-1.5499999999999999
8,0.0
9,0.0
10,0.0
11,0.0
12,0.0
13,0.0
14,1.4457564992155446
15,-2.985176324274277
16,0.4568181276646328
17,-2.5908945358337407
18,1.631705191151729
2,1, 1, 1, 0,23,45.00,60.00,Tuesday
7,-1.7
8,0.0
9,0.0
10,0.0
11,0.0
12,0.0
13,0.0
14,1.4040524341172549
15,-3.290581043946739
16,0.3568665715338284
17,-2.880973069739184
18,1.6026205565144936
2,1, 1, 1, 0,24, 0.00,15.00,Tuesday
7,-1.7
8,0.0
9,0.0
10,0.0
11,0.0
12,0.0
13,0.0
14,1.3804187896911758
15,-3.3442366078681036
16,0.31894779748029125
17,-2.93955323106195
18,1.572135430285815
2,1, 1, 1, 0,24,15.00,30.00,Tuesday
7,-1.7
8,0.0
9,0.0
10,0.0
11,0.0
12,0.0
13,0.0
14,1.3536933862416605
15,-3.398716599508808
16,0.2849720272785703
17,-2.997631312744943
18,1.5434578718969668
2,1, 1, 1, 0,24,30.00,45.00,Tuesday
7,-1.7
8,0.0
9,0.0
10,0.0
11,0.0
12,0.0
13,0.0
14,1.327617381031232
15,-3.4530576154425507
16,0.2503577217197517
17,-3.055945900777772
18,1.516934347165196
2,1, 1, 1, 0,24,45.00,60.00,Tuesday
7,-1.7
8,0.0
9,0.0
10,0.0
11,0.0
12,0.0
13,0.0
14,1.3021366665702008
15,-3.5073971859749868
16,0.21637408307071838
17,-3.114055553142748
18,1.4918110532994682
End of Data
 Number of Records Written=        1152
