Program Version,EnergyPlus, Version 9.5.0-de239b2e5f, YMD=2022.11.08 09:46
1,5,Environment Title[],Latitude[deg],Longitude[deg],Time Zone[],Elevation[m]
2,8,Day of Simulation[],Month[],Day of Month[],DST Indicator[1=yes 0=no],Hour[],StartMinute[],EndMinute[],DayType
3,5,Cumulative Day of Simulation[],Month[],Day of Month[],DST Indicator[1=yes 0=no],DayType  ! When Daily Report Variables Requested
4,2,Cumulative Days of Simulation[],Month[]  ! When Monthly Report Variables Requested
5,1,Cumulative Days of Simulation[] ! When Run Period Report Variables Requested
6,1,Calendar Year of Simulation[] ! When Annual Report Variables Requested
7,1,Environment,Site Outdoor Air Drybulb Temperature [C] !TimeStep
8,1,ZONE ONE,Zone Windows Total Transmitted Solar Radiation Rate [W] !TimeStep
9,1,ZN001:WALL001,Surface Outside Face Sunlit Fraction [] !TimeStep
10,1,ZN001:WALL001,Surface Outside Face Incident Solar Radiation Rate per Area [W/m2] !TimeStep
11,1,ZN001:WALL001:WIN001,Surface Outside Face Sunlit Fraction [] !TimeStep
12,1,ZN001:WALL001:WIN001,Surface Outside Face Incident Solar Radiation Rate per Area [W/m2] !TimeStep
13,1,ZN001:WALL001:WIN001,Surface Window Transmitted Solar Radiation Rate [W] !TimeStep
14,1,ZN001:WALL001,Surface Inside Face Temperature [C] !TimeStep
15,1,ZN001:WALL001,Surface Outside Face Temperature [C] !TimeStep
16,1,ZN001:WALL001:WIN001,Surface Inside Face Temperature [C] !TimeStep
17,1,ZN001:WALL001:WIN001,Surface Outside Face Temperature [C] !TimeStep
18,1,ZONE ONE,Zone Mean Air Temperature [C] !TimeStep
End of Data Dictionary
1,RUN PERIOD 1,  41.98, -87.92,  -6.00, 201.00
2,1, 1, 1, 0, 1, 0.00,15.00,Tuesday
7,-4.324999999999999
8,0.0
9,0.0
10,0.0
11,0.0
12,0.0
13,0.0
14,4.206406283672308
15,-5.92733194411718
16,2.179089648890624
17,-4.671027349451833
18,4.623423307743172
2,1, 1, 1, 0, 1,15.00,30.00,Tuesday
7,-6.949999999999999
8,0.0
9,0.0
10,0.0
11,0.0
12,0.0
13,0.0
14,4.027228271359092
15,-8.394994669565519
16,1.5694156180186383
17,-6.758718072520651
18,4.53076430223007
2,1, 1, 1, 0, 1,30.00,45.00,Tuesday
7,-9.575
8,0.0
9,0.0
10,0.0
11,0.0
12,0.0
13,0.0
14,3.82809192088268
15,-10.870760903551812
16,0.9551808780196893
17,-8.852920220237934
18,4.405812918930284
2,1, 1, 1, 0, 1,45.00,60.00,Tuesday
7,-12.2
8,0.0
9,0.0
10,0.0
11,0.0
12,0.0
13,0.0
14,3.61312477089097
15,-13.353119833819214
16,0.32660442969086037
17,-10.95499545009693
18,4.258167388450975
2,1, 1, 1, 0, 2, 0.00,15.00,Tuesday
7,-12.075
8,0.0
9,0.0
10,0.0
11,0.0
12,0.0
13,0.0
14,3.54979134097254
15,-13.154361064600728
16,0.26068316001033056
17,-10.801145600074733
18,4.124914070439072
2,1, 1, 1, 0, 2,15.00,30.00,Tuesday
7,-11.95
8,0.0
9,0.0
10,0.0
11,0.0
12,0.0
13,0.0
14,3.4724529967152528
15,-12.9771957827255
16,0.2315043820470919
17,-10.655128675954132
18,4.023428173680702
2,1, 1, 1, 0, 2,30.00,45.00,Tuesday
7,-11.825
8,0.0
9,0.0
10,0.0
11,0.0
12,0.0
13,0.0
14,3.412209880236489
15,-12.798854918068585
16,0.20770430130846763
17,-10.508726543722219
18,3.948729433094047
2,1, 1, 1, 0, 2,45.00,60.00,Tuesday
7,-11.7
8,0.0
9,0.0
10,0.0
11,0.0
12,0.0
13,0.0
14,3.3632441354104829
15,-12.620585628777432
16,0.196571661220446
17,-10.35966996916352
18,3.8899700004593127
2,1, 1, 1, 0, 3, 0.00,15.00,Tuesday
7,-11.549999999999999
8,0.0
9,0.0
10,0.0
11,0.0
12,0.0
13,0.0
14,3.315995479088479
15,-12.49506144075714
16,0.19484690256103932
17,-10.225795201436199
18,3.838213747669437
2,1, 1, 1, 0, 3,15.00,30.00,Tuesday
7,-11.399999999999999
8,0.0
9,0.0
10,0.0
11,0.0
12,0.0
13,0.0
14,3.2719828656913134
15,-12.370928206308868
16,0.18829851811710797
17,-10.073388402809315
18,3.7888484819191015
2,1, 1, 1, 0, 3,30.00,45.00,Tuesday
7,-11.25
8,0.0
9,0.0
10,0.0
11,0.0
12,0.0
13,0.0
14,3.228982670067271
15,-12.248351423704849
16,0.19025985258895163
17,-9.938637736154988
18,3.7405655516785387
2,1, 1, 1, 0, 3,45.00,60.00,Tuesday
7,-11.1
8,0.0
9,0.0
10,0.0
11,0.0
12,0.0
13,0.0
14,3.186466168299532
15,-12.1273834225261
16,0.19000797983926533
17,-9.795810052415277
18,3.6931550333951499
2,1, 1, 1, 0, 4, 0.00,15.00,Tuesday
7,-11.1
8,0.0
9,0.0
10,0.0
11,0.0
12,0.0
13,0.0
14,3.1402757794249225
15,-12.09816418527756
16,0.13916901543626637
17,-9.818501821368955
18,3.645701368344742
2,1, 1, 1, 0, 4,15.00,30.00,Tuesday
7,-11.1
8,0.0
9,0.0
10,0.0
11,0.0
12,0.0
13,0.0
14,3.0944940270600829
15,-12.070075316045042
16,0.09408217242253159
17,-9.848222688199485
18,3.5978573739167709
2,1, 1, 1, 0, 4,30.00,45.00,Tuesday
7,-11.1
8,0.0
9,0.0
10,0.0
11,0.0
12,0.0
13,0.0
14,3.048540755018413
15,-12.04355718379232
16,0.04974668372199176
17,-9.877753914423693
18,3.549735999811544
2,1, 1, 1, 0, 4,45.00,60.00,Tuesday
7,-11.1
8,0.0
9,0.0
10,0.0
11,0.0
12,0.0
13,0.0
14,3.002516536844438
15,-12.01847761175049
16,0.005619206448272962
17,-9.906447465445809
18,3.501540081008095
2,1, 1, 1, 0, 5, 0.00,15.00,Tuesday
7,-10.975
8,0.0
9,0.0
10,0.0
11,0.0
12,0.0
13,0.0
14,2.962146424869118
15,-11.896407755112798
16,-0.0026618115463179494
17,-9.819213248521919
18,3.4544331488957757
2,1, 1, 1, 0, 5,15.00,30.00,Tuesday
7,-10.85
8,0.0
9,0.0
10,0.0
11,0.0
12,0.0
13,0.0
14,2.921979604139214
15,-11.774418478398117
16,-0.012929639872709231
17,-9.724048616236076
18,3.4088929551955178
2,1, 1, 1, 0, 5,30.00,45.00,Tuesday
7,-10.725
8,0.0
9,0.0
10,0.0
11,0.0
12,0.0
13,0.0
14,2.8828093547143944
15,-11.65240750653063
16,-0.02292825839174384
17,-9.628043052803492
18,3.364705801965279
2,1, 1, 1, 0, 5,45.00,60.00,Tuesday
7,-10.6
8,0.0
9,0.0
10,0.0
11,0.0
12,0.0
13,0.0
14,2.844474590480586
15,-11.530406220771017
16,-0.03214940416387435
17,-9.531805904216072
18,3.3215054467555409
2,1, 1, 1, 0, 6, 0.00,15.00,Tuesday
7,-10.6
8,0.0
9,0.0
10,0.0
11,0.0
12,0.0
13,0.0
14,2.799054747854112
15,-11.531311316712392
16,-0.06770445676636428
17,-9.53527136239154
18,3.277803487400956
2,1, 1, 1, 0, 6,15.00,30.00,Tuesday
7,-10.6
8,0.0
9,0.0
10,0.0
11,0.0
12,0.0
13,0.0
14,2.7542225508782196
15,-11.532146963291878
16,-0.10793302160436724
17,-9.539519839515606
18,3.2327117107639489
2,1, 1, 1, 0, 6,30.00,45.00,Tuesday
7,-10.6
8,0.0
9,0.0
10,0.0
11,0.0
12,0.0
13,0.0
14,2.7088594483112238
15,-11.53302918102355
16,-0.14544229715409075
17,-9.54685801450205
18,3.1865014527439645
2,1, 1, 1, 0, 6,45.00,60.00,Tuesday
7,-10.6
8,0.0
9,0.0
10,0.0
11,0.0
12,0.0
13,0.0
14,2.6631425086074715
15,-11.533909630564505
16,-0.18317208852101886
17,-9.554657923466494
18,3.1397251281883435
2,1, 1, 1, 0, 7, 0.00,15.00,Tuesday
7,-10.6
8,0.0
9,0.0
10,0.0
11,0.0
12,0.0
13,0.0
14,2.619480680164444
15,-11.509788778599298
16,-0.2261570591014106
17,-9.578708927404705
18,3.0930945220295524
2,1, 1, 1, 0, 7,15.00,30.00,Tuesday
7,-10.6
8,0.0
9,0.0
10,0.0
11,0.0
12,0.0
13,0.0
14,2.5756827915465387
15,-11.48691814469225
16,-0.2674244299290649
17,-9.60283839810046
18,3.0469707824966787
2,1, 1, 1, 0, 7,30.00,45.00,Tuesday
7,-10.6
8,0.0
9,0.0
10,0.0
11,0.0
12,0.0
13,0.0
14,2.53217073115973
15,-11.465208859817376
16,-0.30830136693703028
17,-9.626305880869382
18,3.0013334205581008
2,1, 1, 1, 0, 7,45.00,60.00,Tuesday
7,-10.6
8,0.0
9,0.0
10,0.0
11,0.0
12,0.0
13,0.0
14,2.488952919927224
15,-11.444592368809529
16,-0.34872036531260167
17,-9.648992303667456
18,2.956061544988961
2,1, 1, 1, 0, 8, 0.00,15.00,Tuesday
7,-10.45
8,0.0
9,0.0
10,0.0
11,0.0
12,0.0
13,0.0
14,2.445023512484129
15,-11.395974530061688
16,-0.366746311636291
17,-9.600835449548299
18,2.9107845088236714
2,1, 1, 1, 0, 8,15.00,30.00,Tuesday
7,-10.3
8,126.06928150586268
9,1.0
10,22.819555959623899
11,1.0
12,22.819555959623899
13,126.06928150586268
14,2.5158845421778865
15,-9.722675113608608
16,-0.02685522393926476
17,-9.24790604144033
18,2.882384947680033
2,1, 1, 1, 0, 8,30.00,45.00,Tuesday
7,-10.15
8,619.2764071809525
9,1.0
10,109.75755355442667
11,1.0
12,109.75755355442667
13,619.2764071809525
14,2.899321412283034
15,-3.3566316313093678
16,1.3951453466430053
17,-8.022987964730988
18,2.9175923858278627
2,1, 1, 1, 0, 8,45.00,60.00,Tuesday
7,-10.0
8,1127.0115125865924
9,1.0
10,195.8764694434918
11,1.0
12,195.8764694434918
13,1127.0115125865924
14,3.395552565668526
15,3.1382720175991616
16,2.9863137306838327
17,-6.787803118230784
18,3.02210304853192
2,1, 1, 1, 0, 9, 0.00,15.00,Tuesday
7,-9.725
8,1633.9473187834977
9,1.0
10,278.97248314719988
11,1.0
12,278.97248314719988
13,1633.9473187834977
14,3.77490839594177
15,8.306478094703302
16,4.506560017679476
17,-5.700105576088731
18,3.177669151426573
2,1, 1, 1, 0, 9,15.00,30.00,Tuesday
7,-9.45
8,2169.3497286516246
9,1.0
10,364.91995730569456
11,1.0
12,364.91995730569456
13,2169.3497286516246
14,4.190115460190699
15,13.387213205226479
16,5.988336597707303
17,-4.621701527939308
18,3.376208841526141
2,1, 1, 1, 0, 9,30.00,45.00,Tuesday
7,-9.175
8,2525.002157415991
9,1.0
10,420.35879993239237
11,1.0
12,420.35879993239237
13,2525.002157415991
14,4.478790260452303
15,16.14526638725521
16,6.976932087623254
17,-3.9571933190337065
18,3.5980648991217429
2,1, 1, 1, 0, 9,45.00,60.00,Tuesday
7,-8.9
8,2894.733153368328
9,1.0
10,478.00138373643099
11,1.0
12,478.00138373643099
13,2894.733153368328
14,4.818349998898678
15,19.140343492363447
16,7.963302555235771
17,-3.269269849723173
18,3.8330290121453718
2,1, 1, 1, 0,10, 0.00,15.00,Tuesday
7,-8.350000000000002
8,3272.8152773592089
9,1.0
10,536.9185644770597
11,1.0
12,536.9185644770597
13,3272.8152773592089
14,5.102150619259022
15,20.258343949499204
16,8.976138229759784
17,-2.5520291457526129
18,4.081506312758303
2,1, 1, 1, 0,10,15.00,30.00,Tuesday
7,-7.800000000000001
8,3664.3932469945218
9,1.0
10,598.0969199229219
11,1.0
12,598.0969199229219
13,3664.3932469945218
14,5.412738442679315
15,21.511655670086829
16,10.00531325598513
17,-1.8383521065702553
18,4.352681812267984
2,1, 1, 1, 0,10,30.00,45.00,Tuesday
7,-7.25
8,3922.5875021771419
9,1.0
10,637.6133352894237
11,1.0
12,637.6133352894237
13,3922.5875021771419
14,5.651920839515431
15,21.571721220699084
16,10.73942943276603
17,-1.3446147237410742
18,4.632684107472459
2,1, 1, 1, 0,10,45.00,60.00,Tuesday
7,-6.7
8,4177.176988777942
9,1.0
10,676.6412284283772
11,1.0
12,676.6412284283772
13,4177.176988777942
14,5.913163551861492
15,21.732180796824016
16,11.447810415754703
17,-0.8545144859887159
18,4.909888694901482
2,1, 1, 1, 0,11, 0.00,15.00,Tuesday
7,-6.275
8,4427.24862586956
9,1.0
10,715.0112779846514
11,1.0
12,715.0112779846514
13,4427.24862586956
14,6.250917306007084
15,23.829936959836759
16,12.197179439677257
17,-0.13002063256925568
18,5.186378357902287
2,1, 1, 1, 0,11,15.00,30.00,Tuesday
7,-5.85
8,4671.461249300812
9,1.0
10,752.5077794605232
11,1.0
12,752.5077794605232
13,4671.461249300812
14,6.5771291848261879
15,25.765096447762187
16,12.937942175409149
17,0.573865192935159
18,5.466413865065686
2,1, 1, 1, 0,11,30.00,45.00,Tuesday
7,-5.425
8,4601.007190918978
9,1.0
10,742.5988714321785
11,1.0
12,742.5988714321785
13,4601.007190918978
14,6.769373153628272
15,25.617024833676806
16,13.074185754102416
17,0.8594408883673737
18,5.732696050248394
2,1, 1, 1, 0,11,45.00,60.00,Tuesday
7,-5.0
8,4499.2016853285699
9,1.0
10,727.8169025450712
11,1.0
12,727.8169025450712
13,4499.2016853285699
14,6.957027325885198
15,25.387964318054107
16,13.122454945195955
17,1.112241353540071
18,5.972509273788073
2,1, 1, 1, 0,12, 0.00,15.00,Tuesday
7,-4.575
8,4323.308662458842
9,1.0
10,700.3759009170325
11,1.0
12,700.3759009170325
13,4323.308662458842
14,7.087666261362302
15,24.64547009395826
16,13.011451901889359
17,1.3011741642440598
18,6.178860865958932
2,1, 1, 1, 0,12,15.00,30.00,Tuesday
7,-4.15
8,4192.088537562915
9,1.0
10,681.6705029034473
11,1.0
12,681.6705029034473
13,4192.088537562915
14,7.240106598420951
15,24.315138316298027
16,12.990816650605609
17,1.562975322114255
18,6.359434668184827
2,1, 1, 1, 0,12,30.00,45.00,Tuesday
7,-3.7249999999999998
8,3679.2095382051459
9,1.0
10,602.01865277251
11,1.0
12,602.01865277251
13,3679.2095382051459
14,7.158910988998551
15,21.286850195118576
16,12.187165601405468
17,1.3170933584647174
18,6.49302886189313
2,1, 1, 1, 0,12,45.00,60.00,Tuesday
7,-3.3
8,3004.1566594445437
9,1.0
10,493.55004396206007
11,1.0
12,493.55004396206007
13,3004.1566594445437
14,6.970770749427326
15,17.108491520555164
16,10.912047002510576
17,0.8053651808238556
18,6.556317129549006
2,1, 1, 1, 0,13, 0.00,15.00,Tuesday
7,-3.0249999999999996
8,2478.524958501768
9,1.0
10,412.335026418112
11,1.0
12,412.335026418112
13,2478.524958501768
14,6.838194821799767
15,14.264229319953117
16,9.905824618264433
17,0.45705548753892347
18,6.563471440734138
2,1, 1, 1, 0,13,15.00,30.00,Tuesday
7,-2.75
8,1813.6079234881677
9,1.0
10,305.94037763660148
11,1.0
12,305.94037763660148
13,1813.6079234881677
14,6.546035086164384
15,10.091020606022589
16,8.509474937459232
17,-0.1329270091481476
18,6.523537364119305
2,1, 1, 1, 0,13,30.00,45.00,Tuesday
7,-2.475
8,1654.889344186443
9,1.0
10,281.0763483922329
11,1.0
12,281.0763483922329
13,1654.889344186443
14,6.522825600693682
15,9.577764423965152
16,8.181299298128579
17,-0.027562070570638754
18,6.471047314054913
2,1, 1, 1, 0,13,45.00,60.00,Tuesday
7,-2.2
8,1499.480674562882
9,1.0
10,256.7721209415886
11,1.0
12,256.7721209415886
13,1499.480674562882
14,6.490335131279149
15,8.971484509156277
16,7.921862290728768
17,0.1022938519258787
18,6.425950474626148
2,1, 1, 1, 0,14, 0.00,15.00,Tuesday
7,-1.9250000000000003
8,1224.3719454628898
9,1.0
10,210.73276284570657
11,1.0
12,210.73276284570657
13,1224.3719454628898
14,6.362430019452687
15,7.4235996579945839
16,7.321327165284629
17,-0.0015393755966215395
18,6.385039504308902
2,1, 1, 1, 0,14,15.00,30.00,Tuesday
7,-1.6500000000000002
8,1086.7433473785935
9,1.0
10,189.38488290342594
11,1.0
12,189.38488290342594
13,1086.7433473785935
14,6.331539904114177
15,7.018327685202949
16,7.048821317309034
17,0.1054009952706565
18,6.349091735892934
2,1, 1, 1, 0,14,30.00,45.00,Tuesday
7,-1.375
8,1036.592369727448
9,1.0
10,179.3940297802914
11,1.0
12,179.3940297802914
13,1036.592369727448
14,6.327954490796826
15,7.140895794292712
16,6.981476503603233
17,0.32926670918072889
18,6.319564280783688
2,1, 1, 1, 0,14,45.00,60.00,Tuesday
7,-1.1
8,985.7419423676934
9,1.0
10,169.43349014176136
11,1.0
12,169.43349014176136
13,985.7419423676934
14,6.322180692674523
15,7.239511077423256
16,6.909374892818846
17,0.5513814614651551
18,6.296265107015767
2,1, 1, 1, 0,15, 0.00,15.00,Tuesday
7,-1.1
8,1037.2484537850083
9,1.0
10,178.15692317953907
11,1.0
12,178.15692317953907
13,1037.2484537850083
14,6.379287233080593
15,8.056639938329483
16,7.054522361416957
17,0.6908748015509332
18,6.282227210284495
2,1, 1, 1, 0,15,15.00,30.00,Tuesday
7,-1.1
8,974.2521551418561
9,1.0
10,166.40516310952945
11,1.0
12,166.40516310952945
13,974.2521551418561
14,6.333765153465831
15,7.693152375687341
16,6.89476066174592
17,0.6233081089802681
18,6.272047451509365
2,1, 1, 1, 0,15,30.00,45.00,Tuesday
7,-1.1
8,821.0202488443201
9,1.0
10,140.8967369711617
11,1.0
12,140.8967369711617
13,821.0202488443201
14,6.225458079527187
15,6.486045200235432
16,6.469591174271386
17,0.3780771147316955
18,6.254717943170379
2,1, 1, 1, 0,15,45.00,60.00,Tuesday
7,-1.1
8,675.2605630788712
9,1.0
10,116.57355796743004
11,1.0
12,116.57355796743004
13,675.2605630788712
14,6.114825402030479
15,5.275941538273987
16,6.02121730294499
17,0.11750904028019704
18,6.221886781719999
2,1, 1, 1, 0,16, 0.00,15.00,Tuesday
7,-1.1
8,535.6425286327472
9,1.0
10,93.14939272689483
11,1.0
12,93.14939272689483
13,535.6425286327472
14,6.0199302925861419
15,4.224967389779779
16,5.629974776786241
17,-0.0644406900848935
18,6.172438407146573
2,1, 1, 1, 0,16,15.00,30.00,Tuesday
7,-1.1
8,332.33302404905529
9,1.0
10,57.94047897402063
11,1.0
12,57.94047897402063
13,332.33302404905529
14,5.839050243594651
15,2.098765583473414
16,5.045575770427263
17,-0.41545289186967696
18,6.09991327881188
2,1, 1, 1, 0,16,30.00,45.00,Tuesday
7,-1.1
8,257.5393317010233
9,1.0
10,45.38251793443488
11,1.0
12,45.38251793443488
13,257.5393317010233
14,5.769566789272479
15,1.4860485535853954
16,4.802478490399267
17,-0.4951706378736276
18,6.013745760988703
2,1, 1, 1, 0,16,45.00,60.00,Tuesday
7,-1.1
8,179.7080990939677
9,1.0
10,32.02625108222755
11,1.0
12,32.02625108222755
13,179.7080990939677
14,5.664031704991979
15,0.6201466711876911
16,4.56720017921117
17,-0.5870791844054111
18,5.923997445646303
2,1, 1, 1, 0,17, 0.00,15.00,Tuesday
7,-1.1
8,98.54761882042738
9,1.0
10,17.762198626050539
11,1.0
12,17.762198626050539
13,98.54761882042738
14,5.529644605388629
15,-0.6347630947911787
16,4.273933644695035
17,-0.7990143165490053
18,5.832631534619827
2,1, 1, 1, 0,17,15.00,30.00,Tuesday
7,-1.1
8,0.0
9,0.0
10,0.0
11,0.0
12,0.0
13,0.0
14,5.347100361707642
15,-2.4735760334779797
16,3.90508398881866
17,-1.1099898064279615
18,5.730444698099287
2,1, 1, 1, 0,17,30.00,45.00,Tuesday
7,-1.1
8,0.0
9,0.0
10,0.0
11,0.0
12,0.0
13,0.0
14,5.293650306200154
15,-2.611018540061415
16,3.8144723599878036
17,-1.1388854064190355
18,5.631483097052741
2,1, 1, 1, 0,17,45.00,60.00,Tuesday
7,-1.1
8,0.0
9,0.0
10,0.0
11,0.0
12,0.0
13,0.0
14,5.225622989984422
15,-2.8048029226991799
16,3.7629543458070886
17,-1.1570209880159155
18,5.548492604918276
2,1, 1, 1, 0,18, 0.00,15.00,Tuesday
7,-1.25
8,0.0
9,0.0
10,0.0
11,0.0
12,0.0
13,0.0
14,5.169176611589802
15,-2.9522701448699477
16,3.6753551626060245
17,-1.2926649381943208
18,5.48241806353944
2,1, 1, 1, 0,18,15.00,30.00,Tuesday
7,-1.4
8,0.0
9,0.0
10,0.0
11,0.0
12,0.0
13,0.0
14,5.117926048445547
15,-3.104662577360424
16,3.603541401514292
17,-1.420556060875242
18,5.428417912869838
2,1, 1, 1, 0,18,30.00,45.00,Tuesday
7,-1.5499999999999999
8,0.0
9,0.0
10,0.0
11,0.0
12,0.0
13,0.0
14,5.070949961906255
15,-3.256541251229999
16,3.536030471668596
17,-1.547510568594305
18,5.38130811129808
2,1, 1, 1, 0,18,45.00,60.00,Tuesday
7,-1.7
8,0.0
9,0.0
10,0.0
11,0.0
12,0.0
13,0.0
14,5.026119648327109
15,-3.4085890583435107
16,3.4713999026583908
17,-1.673907041805876
18,5.3376822321806689
2,1, 1, 1, 0,19, 0.00,15.00,Tuesday
7,-1.825
8,0.0
9,0.0
10,0.0
11,0.0
12,0.0
13,0.0
14,5.007140593876319
15,-3.2569725550405179
16,3.4142499096936946
17,-1.7766950850226522
18,5.299381537175245
2,1, 1, 1, 0,19,15.00,30.00,Tuesday
7,-1.9500000000000002
8,0.0
9,0.0
10,0.0
11,0.0
12,0.0
13,0.0
14,4.987273282691231
15,-3.187201564202984
16,3.3646077509072258
17,-1.8833897732948799
18,5.268116070282027
2,1, 1, 1, 0,19,30.00,45.00,Tuesday
7,-2.075
8,0.0
9,0.0
10,0.0
11,0.0
12,0.0
13,0.0
14,4.962640217207678
15,-3.2601786356405699
16,3.32044232104397
17,-1.987610412690401
18,5.242333361017265
2,1, 1, 1, 0,19,45.00,60.00,Tuesday
7,-2.2
8,0.0
9,0.0
10,0.0
11,0.0
12,0.0
13,0.0
14,4.941089990321689
15,-3.23533607269266
16,3.2743927817830356
17,-2.0975174250721695
18,5.218990216957537
2,1, 1, 1, 0,20, 0.00,15.00,Tuesday
7,-1.9250000000000003
8,0.0
9,0.0
10,0.0
11,0.0
12,0.0
13,0.0
14,4.936221418764924
15,-2.9335086943472685
16,3.320041034919768
17,-1.886321063770879
18,5.198450314621537
2,1, 1, 1, 0,20,15.00,30.00,Tuesday
7,-1.6500000000000002
8,0.0
9,0.0
10,0.0
11,0.0
12,0.0
13,0.0
14,4.931100909221484
15,-2.6347684007267468
16,3.3663403922632826
17,-1.661608506901473
18,5.18113803791431
2,1, 1, 1, 0,20,30.00,45.00,Tuesday
7,-1.375
8,0.0
9,0.0
10,0.0
11,0.0
12,0.0
13,0.0
14,4.927702187472272
15,-2.3373074910345128
16,3.4141117282956658
17,-1.4344485071775353
18,5.166632939382284
2,1, 1, 1, 0,20,45.00,60.00,Tuesday
7,-1.1
8,0.0
9,0.0
10,0.0
11,0.0
12,0.0
13,0.0
14,4.925831971107633
15,-2.0411408736699498
16,3.463874583482493
17,-1.2052014083129166
18,5.154251693628103
2,1, 1, 1, 0,21, 0.00,15.00,Tuesday
7,-1.25
8,0.0
9,0.0
10,0.0
11,0.0
12,0.0
13,0.0
14,4.881091162866911
15,-2.324915760792334
16,3.418006118231858
17,-1.314799718905988
18,5.13726979207075
2,1, 1, 1, 0,21,15.00,30.00,Tuesday
7,-1.4
8,0.0
9,0.0
10,0.0
11,0.0
12,0.0
13,0.0
14,4.837662895621246
15,-2.542867288121005
16,3.3636836956060849
17,-1.4308157321340787
18,5.11100249295673
2,1, 1, 1, 0,21,30.00,45.00,Tuesday
7,-1.5499999999999999
8,0.0
9,0.0
10,0.0
11,0.0
12,0.0
13,0.0
14,4.780538850205407
15,-2.89069704847868
16,3.307408321213245
17,-1.5449699172301053
18,5.0744394108754629
2,1, 1, 1, 0,21,45.00,60.00,Tuesday
7,-1.7
8,0.0
9,0.0
10,0.0
11,0.0
12,0.0
13,0.0
14,4.718052344943557
15,-3.346618756126344
16,3.2447780986871637
17,-1.6536564293464836
18,5.029678837041222
2,1, 1, 1, 0,22, 0.00,15.00,Tuesday
7,-1.5499999999999999
8,0.0
9,0.0
10,0.0
11,0.0
12,0.0
13,0.0
14,4.72630963227864
15,-2.8543512227310305
16,3.2361990443168908
17,-1.5647048731531186
18,4.990492771108016
2,1, 1, 1, 0,22,15.00,30.00,Tuesday
7,-1.4
8,0.0
9,0.0
10,0.0
11,0.0
12,0.0
13,0.0
14,4.723727333622832
15,-2.52103517538087
16,3.2559819509681349
17,-1.452650022984244
18,4.964302506568634
2,1, 1, 1, 0,22,30.00,45.00,Tuesday
7,-1.25
8,0.0
9,0.0
10,0.0
11,0.0
12,0.0
13,0.0
14,4.720237802348712
15,-2.2994750668964389
16,3.2773990321628618
17,-1.3368276844210528
18,4.948930477889365
2,1, 1, 1, 0,22,45.00,60.00,Tuesday
7,-1.1
8,0.0
9,0.0
10,0.0
11,0.0
12,0.0
13,0.0
14,4.720722730239133
15,-2.0143761538882019
16,3.3032849828473447
17,-1.2134426117843305
18,4.9392247014990329
2,1, 1, 1, 0,23, 0.00,15.00,Tuesday
7,-1.25
8,0.0
9,0.0
10,0.0
11,0.0
12,0.0
13,0.0
14,4.675670738845762
15,-2.317826938141704
16,3.2141487109610127
17,-1.4873056847293356
18,4.924730060823588
2,1, 1, 1, 0,23,15.00,30.00,Tuesday
7,-1.4
8,0.0
9,0.0
10,0.0
11,0.0
12,0.0
13,0.0
14,4.633332495113649
15,-2.622399744414598
16,3.11368062763313
17,-1.7798039804852693
18,4.900141591586574
2,1, 1, 1, 0,23,30.00,45.00,Tuesday
7,-1.5499999999999999
8,0.0
9,0.0
10,0.0
11,0.0
12,0.0
13,0.0
14,4.5865297187390479
15,-2.9276250220063249
16,3.012253688191663
17,-2.07157293264936
18,4.866408819650563
2,1, 1, 1, 0,23,45.00,60.00,Tuesday
7,-1.7
8,0.0
9,0.0
10,0.0
11,0.0
12,0.0
13,0.0
14,4.5358695825503159
15,-3.2331938125945047
16,2.9072124694404239
17,-2.3638563468977056
18,4.826428712833825
2,1, 1, 1, 0,24, 0.00,15.00,Tuesday
7,-1.7
8,0.0
9,0.0
10,0.0
11,0.0
12,0.0
13,0.0
14,4.502579285990096
15,-3.287140213549381
16,2.861208925050846
17,-2.42559118493773
18,4.785842757545881
2,1, 1, 1, 0,24,15.00,30.00,Tuesday
7,-1.7
8,0.0
9,0.0
10,0.0
11,0.0
12,0.0
13,0.0
14,4.466192535067183
15,-3.341784703907709
16,2.819405751865588
17,-2.4858854548912179
18,4.747658315191049
2,1, 1, 1, 0,24,30.00,45.00,Tuesday
7,-1.7
8,0.0
9,0.0
10,0.0
11,0.0
12,0.0
13,0.0
14,4.430799283450116
15,-3.3962818721802856
16,2.777128532988627
17,-2.5462945111581805
18,4.711888550001528
2,1, 1, 1, 0,24,45.00,60.00,Tuesday
7,-1.7
8,0.0
9,0.0
10,0.0
11,0.0
12,0.0
13,0.0
14,4.396154948208342
15,-3.4507823163316075
16,2.7356893164301256
17,-2.6064300717635549
18,4.677558598280329
End of Data
 Number of Records Written=        1152
