Program Version,EnergyPlus, Version 9.5.0-de239b2e5f, YMD=2022.11.08 09:46
1,5,Environment Title[],Latitude[deg],Longitude[deg],Time Zone[],Elevation[m]
2,8,Day of Simulation[],Month[],Day of Month[],DST Indicator[1=yes 0=no],Hour[],StartMinute[],EndMinute[],DayType
3,5,Cumulative Day of Simulation[],Month[],Day of Month[],DST Indicator[1=yes 0=no],DayType  ! When Daily Report Variables Requested
4,2,Cumulative Days of Simulation[],Month[]  ! When Monthly Report Variables Requested
5,1,Cumulative Days of Simulation[] ! When Run Period Report Variables Requested
6,1,Calendar Year of Simulation[] ! When Annual Report Variables Requested
7,1,Environment,Site Outdoor Air Drybulb Temperature [C] !TimeStep
8,1,ZONE ONE,Zone Windows Total Transmitted Solar Radiation Rate [W] !TimeStep
9,1,ZN001:WALL001,Surface Outside Face Sunlit Fraction [] !TimeStep
10,1,ZN001:WALL001,Surface Outside Face Incident Solar Radiation Rate per Area [W/m2] !TimeStep
11,1,ZN001:WALL001:WIN001,Surface Outside Face Sunlit Fraction [] !TimeStep
12,1,ZN001:WALL001:WIN001,Surface Outside Face Incident Solar Radiation Rate per Area [W/m2] !TimeStep
13,1,ZN001:WALL001:WIN001,Surface Window Transmitted Solar Radiation Rate [W] !TimeStep
14,1,ZN001:WALL001,Surface Inside Face Temperature [C] !TimeStep
15,1,ZN001:WALL001,Surface Outside Face Temperature [C] !TimeStep
16,1,ZN001:WALL001:WIN001,Surface Inside Face Temperature [C] !TimeStep
17,1,ZN001:WALL001:WIN001,Surface Outside Face Temperature [C] !TimeStep
18,1,ZONE ONE,Zone Mean Air Temperature [C] !TimeStep
End of Data Dictionary
1,RUN PERIOD 1,  41.98, -87.92,  -6.00, 201.00
2,1, 1, 1, 0, 1, 0.00,15.00,Tuesday
7,-4.324999999999999
8,0.0
9,0.0
10,0.0
11,0.0
12,0.0
13,0.0
14,3.0464443471759279
15,-5.948466695993361
16,1.225305293449651
17,-4.867614432471555
18,3.4331118162008806
2,1, 1, 1, 0, 1,15.00,30.00,Tuesday
7,-6.949999999999999
8,0.0
9,0.0
10,0.0
11,0.0
12,0.0
13,0.0
14,2.8690624330239187
15,-8.416291968073037
16,0.6122970606135141
17,-6.955300012620512
18,3.3442725141549429
2,1, 1, 1, 0, 1,30.00,45.00,Tuesday
7,-9.575
8,0.0
9,0.0
10,0.0
11,0.0
12,0.0
13,0.0
14,2.6718933875045658
15,-10.892298357443679
16,-0.004352932896324546
17,-9.049626884427142
18,3.222785876104109
2,1, 1, 1, 0, 1,45.00,60.00,Tuesday
7,-12.2
8,0.0
9,0.0
10,0.0
11,0.0
12,0.0
13,0.0
14,2.458914455384837
15,-13.374885344774559
16,-0.6349587201618192
17,-11.151966892472899
18,3.078126171702455
2,1, 1, 1, 0, 2, 0.00,15.00,Tuesday
7,-12.075
8,0.0
9,0.0
10,0.0
11,0.0
12,0.0
13,0.0
14,2.3992284724929537
15,-13.176300027282722
16,-0.6986100168678604
17,-11.000977787526324
18,2.9474013711005546
2,1, 1, 1, 0, 2,15.00,30.00,Tuesday
7,-11.95
8,0.0
9,0.0
10,0.0
11,0.0
12,0.0
13,0.0
14,2.3252058105865984
15,-12.999065876668409
16,-0.7243846321099454
17,-10.854079769498754
18,2.84829233365466
2,1, 1, 1, 0, 2,30.00,45.00,Tuesday
7,-11.825
8,0.0
9,0.0
10,0.0
11,0.0
12,0.0
13,0.0
14,2.2681977638459367
15,-12.820645639562884
16,-0.7449865033193532
17,-10.706803834132075
18,2.77614362488464
2,1, 1, 1, 0, 2,45.00,60.00,Tuesday
7,-11.7
8,0.0
9,0.0
10,0.0
11,0.0
12,0.0
13,0.0
14,2.2225232227554985
15,-12.642291191603525
16,-0.7529498091935238
17,-10.556868674539203
18,2.7202454437011256
2,1, 1, 1, 0, 3, 0.00,15.00,Tuesday
7,-11.549999999999999
8,0.0
9,0.0
10,0.0
11,0.0
12,0.0
13,0.0
14,2.1785648688885299
15,-12.51728596347326
16,-0.7524206085609535
17,-10.425219142033996
18,2.6716219310481597
2,1, 1, 1, 0, 3,15.00,30.00,Tuesday
7,-11.399999999999999
8,0.0
9,0.0
10,0.0
11,0.0
12,0.0
13,0.0
14,2.137992741787557
15,-12.393693437804398
16,-0.752766828342601
17,-10.285066929418406
18,2.6256252226477394
2,1, 1, 1, 0, 3,30.00,45.00,Tuesday
7,-11.25
8,0.0
9,0.0
10,0.0
11,0.0
12,0.0
13,0.0
14,2.0984105758726359
15,-12.271682024147867
16,-0.7516713281625016
17,-10.144079636796562
18,2.580765236376608
2,1, 1, 1, 0, 3,45.00,60.00,Tuesday
7,-11.1
8,0.0
9,0.0
10,0.0
11,0.0
12,0.0
13,0.0
14,2.0593625526943679
15,-12.151311317756753
16,-0.7499416021777279
17,-10.003246061531968
18,2.5367748424717897
2,1, 1, 1, 0, 4, 0.00,15.00,Tuesday
7,-11.1
8,0.0
9,0.0
10,0.0
11,0.0
12,0.0
13,0.0
14,2.016683553843931
15,-12.121342082058256
16,-0.7967687230265028
17,-10.022037574267188
18,2.492786772313958
2,1, 1, 1, 0, 4,15.00,30.00,Tuesday
7,-11.1
8,0.0
9,0.0
10,0.0
11,0.0
12,0.0
13,0.0
14,1.9744086368943439
15,-12.09253288698604
16,-0.8380762673650111
17,-10.047903768720972
18,2.44846699898306
2,1, 1, 1, 0, 4,30.00,45.00,Tuesday
7,-11.1
8,0.0
9,0.0
10,0.0
11,0.0
12,0.0
13,0.0
14,1.9319814739674076
15,-12.06532928271911
16,-0.8786497347288105
17,-10.073669037540015
18,2.4039079102674134
2,1, 1, 1, 0, 4,45.00,60.00,Tuesday
7,-11.1
8,0.0
9,0.0
10,0.0
11,0.0
12,0.0
13,0.0
14,1.8894904301375189
15,-12.039598236280297
16,-0.9190230187616635
17,-10.098687354562913
18,2.359288152184469
2,1, 1, 1, 0, 5, 0.00,15.00,Tuesday
7,-10.975
8,0.0
9,0.0
10,0.0
11,0.0
12,0.0
13,0.0
14,1.8526759389385213
15,-11.917442921036006
16,-0.9241717012966433
17,-10.010759266135949
18,2.3157343249083426
2,1, 1, 1, 0, 5,15.00,30.00,Tuesday
7,-10.85
8,0.0
9,0.0
10,0.0
11,0.0
12,0.0
13,0.0
14,1.8160545811440403
15,-11.795375883041157
16,-0.9311999457396496
17,-9.914971763026415
18,2.273718920839191
2,1, 1, 1, 0, 5,30.00,45.00,Tuesday
7,-10.725
8,0.0
9,0.0
10,0.0
11,0.0
12,0.0
13,0.0
14,1.7804062259721397
15,-11.673287780665778
16,-0.9379700482027147
17,-9.818348022793089
18,2.23303984916111
2,1, 1, 1, 0, 5,45.00,60.00,Tuesday
7,-10.6
8,0.0
9,0.0
10,0.0
11,0.0
12,0.0
13,0.0
14,1.7455782908987546
15,-11.551209489511312
16,-0.9439807255842538
17,-9.721496148117354
18,2.19334027153065
2,1, 1, 1, 0, 6, 0.00,15.00,Tuesday
7,-10.6
8,0.0
9,0.0
10,0.0
11,0.0
12,0.0
13,0.0
14,1.7035528880112827
15,-11.552059507108094
16,-0.9767318232038633
17,-9.724170024690637
18,2.153134845239508
2,1, 1, 1, 0, 6,15.00,30.00,Tuesday
7,-10.6
8,0.0
9,0.0
10,0.0
11,0.0
12,0.0
13,0.0
14,1.662109396811797
15,-11.552831055285353
16,-1.013882917986507
17,-9.727911852747639
18,2.1115423805934414
2,1, 1, 1, 0, 6,30.00,45.00,Tuesday
7,-10.6
8,0.0
9,0.0
10,0.0
11,0.0
12,0.0
13,0.0
14,1.6201347087006155
15,-11.553648981635158
16,-1.048467808160467
17,-9.734688334010685
18,2.0688186464694735
2,1, 1, 1, 0, 6,45.00,60.00,Tuesday
7,-10.6
8,0.0
9,0.0
10,0.0
11,0.0
12,0.0
13,0.0
14,1.5777975150495996
15,-11.55446561729782
16,-1.0832832702277529
17,-9.741921153309875
18,2.025504786043703
2,1, 1, 1, 0, 7, 0.00,15.00,Tuesday
7,-10.6
8,0.0
9,0.0
10,0.0
11,0.0
12,0.0
13,0.0
14,1.5375723603245378
15,-11.52974224925096
16,-1.122537879233846
17,-9.762637866638216
18,1.9823244506952285
2,1, 1, 1, 0, 7,15.00,30.00,Tuesday
7,-10.6
8,0.0
9,0.0
10,0.0
11,0.0
12,0.0
13,0.0
14,1.4971939506633894
15,-11.506300388877884
16,-1.1601820523410425
17,-9.78335401961806
18,1.9396481183764276
2,1, 1, 1, 0, 7,30.00,45.00,Tuesday
7,-10.6
8,0.0
9,0.0
10,0.0
11,0.0
12,0.0
13,0.0
14,1.4570912373029824
15,-11.484047306343479
16,-1.1974761004305493
17,-9.803487147353053
18,1.8974576884295656
2,1, 1, 1, 0, 7,45.00,60.00,Tuesday
7,-10.6
8,0.0
9,0.0
10,0.0
11,0.0
12,0.0
13,0.0
14,1.4172760249671588
15,-11.46291295250451
16,-1.234341710443573
17,-9.822930608963134
18,1.8556307129824819
2,1, 1, 1, 0, 8, 0.00,15.00,Tuesday
7,-10.45
8,0.0
9,0.0
10,0.0
11,0.0
12,0.0
13,0.0
14,1.376650611092881
15,-11.414696429176768
16,-1.2503254018553208
17,-9.776903863787766
18,1.8137670253399903
2,1, 1, 1, 0, 8,15.00,30.00,Tuesday
7,-10.3
8,104.6569729818286
9,1.0
10,22.819555959623899
11,1.0
12,22.819555959623899
13,104.6569729818286
14,1.4469454129259812
15,-9.74161048864567
16,-0.8880024240532976
17,-9.41165473852368
18,1.7878400896544358
2,1, 1, 1, 0, 8,30.00,45.00,Tuesday
7,-10.15
8,514.5947646175966
9,1.0
10,109.75755355442667
11,1.0
12,109.75755355442667
13,514.5947646175966
14,1.818962951162181
15,-3.3786526561369829
16,0.6169190629590275
17,-8.13001126177187
18,1.8217870138928785
2,1, 1, 1, 0, 8,45.00,60.00,Tuesday
7,-10.0
8,937.8421183154168
9,1.0
10,195.8764694434918
11,1.0
12,195.8764694434918
13,937.8421183154168
14,2.317169950593913
15,3.140683480363628
16,2.3002911082754737
17,-6.839863994221389
18,1.9199369659760704
2,1, 1, 1, 0, 9, 0.00,15.00,Tuesday
7,-9.725
8,1361.7063589692917
9,1.0
10,278.97248314719988
11,1.0
12,278.97248314719988
13,1361.7063589692917
14,2.65420981909049
15,8.284682086255947
16,3.8335976967871376
17,-5.716440017835794
18,2.0682890044330719
2,1, 1, 1, 0, 9,15.00,30.00,Tuesday
7,-9.45
8,1810.5826969053088
9,1.0
10,364.91995730569456
11,1.0
12,364.91995730569456
13,1810.5826969053088
14,3.0539298199360216
15,13.370249057890927
16,5.343350197888185
17,-4.6027596500251779
18,2.2586321847714228
2,1, 1, 1, 0, 9,30.00,45.00,Tuesday
7,-9.175
8,2110.2648628091185
9,1.0
10,420.35879993239237
11,1.0
12,420.35879993239237
13,2110.2648628091185
14,3.3268088974348699
15,16.128304002008958
16,6.345535803126609
17,-3.919186108143549
18,2.471249913174687
2,1, 1, 1, 0, 9,45.00,60.00,Tuesday
7,-8.9
8,2422.160687705001
9,1.0
10,478.00138373643099
11,1.0
12,478.00138373643099
13,2422.160687705001
14,3.6488858110051898
15,19.123728833829163
16,7.348032919077866
17,-3.2107187224278279
18,2.6962082648056069
2,1, 1, 1, 0,10, 0.00,15.00,Tuesday
7,-8.350000000000002
8,2741.388867115507
9,1.0
10,536.9185644770597
11,1.0
12,536.9185644770597
13,2741.388867115507
14,3.913443731218339
15,20.242883261641425
16,8.37598859493562
17,-2.4767788103144996
18,2.9347600737509889
2,1, 1, 1, 0,10,15.00,30.00,Tuesday
7,-7.800000000000001
8,3072.140808330281
9,1.0
10,598.0969199229219
11,1.0
12,598.0969199229219
13,3072.140808330281
14,4.203275512022904
15,21.49707548121645
16,9.421394202850252
17,-1.7469457265575557
18,3.1940244550810208
2,1, 1, 1, 0,10,30.00,45.00,Tuesday
7,-7.25
8,3291.1193191932054
9,1.0
10,637.6133352894237
11,1.0
12,637.6133352894237
13,3291.1193191932054
14,4.424031031344942
15,21.55793357720664
16,10.160104498752105
17,-1.246182622428023
18,3.4597192787298205
2,1, 1, 1, 0,10,45.00,60.00,Tuesday
7,-6.7
8,3507.012214974498
9,1.0
10,676.6412284283772
11,1.0
12,676.6412284283772
13,3507.012214974498
14,4.664701307743373
15,21.719022229741236
16,10.8739992993726
17,-0.7493765088338478
18,3.720676391689266
2,1, 1, 1, 0,11, 0.00,15.00,Tuesday
7,-6.275
8,3719.027779381499
9,1.0
10,715.0112779846514
11,1.0
12,715.0112779846514
13,3719.027779381499
14,4.981900228497567
15,23.816592923951775
16,11.628438777970644
17,-0.01319999233840008
18,3.979360682080757
2,1, 1, 1, 0,11,15.00,30.00,Tuesday
7,-5.85
8,3926.0173907301434
9,1.0
10,752.5077794605232
11,1.0
12,752.5077794605232
13,3926.0173907301434
14,5.2864160436752709
15,25.751618460019825
16,12.372579905197086
17,0.7015858988238506
18,4.240291917544026
2,1, 1, 1, 0,11,30.00,45.00,Tuesday
7,-5.425
8,3867.2547115738618
9,1.0
10,742.5988714321785
11,1.0
12,742.5988714321785
13,3867.2547115738618
14,5.46192353402142
15,25.60348304634976
16,12.488810819805508
17,0.9819518870764341
18,4.487006267919612
2,1, 1, 1, 0,11,45.00,60.00,Tuesday
7,-5.0
8,3781.8081502956649
9,1.0
10,727.8169025450712
11,1.0
12,727.8169025450712
13,3781.8081502956649
14,5.633039945664046
15,25.374212218699879
16,12.515829574182419
17,1.2279988177975839
18,4.707671097215412
2,1, 1, 1, 0,12, 0.00,15.00,Tuesday
7,-4.575
8,3634.0923445885689
9,1.0
10,700.3759009170325
11,1.0
12,700.3759009170325
13,3634.0923445885689
14,5.750307145283905
15,24.631550239921187
16,12.377352722616593
17,1.4056286230263596
18,4.896159455929875
2,1, 1, 1, 0,12,15.00,30.00,Tuesday
7,-4.15
8,3523.1805384613678
9,1.0
10,681.6705029034473
11,1.0
12,681.6705029034473
13,3523.1805384613678
14,5.888032162090007
15,24.301039216740436
16,12.335584984839898
17,1.6593817967519727
18,5.059965588120943
2,1, 1, 1, 0,12,30.00,45.00,Tuesday
7,-3.7249999999999998
8,3090.907901289057
9,1.0
10,602.01865277251
11,1.0
12,602.01865277251
13,3090.907901289057
14,5.803805441653747
15,21.27268375862412
16,11.480558839106209
17,1.3849912623059595
18,5.179284437291037
2,1, 1, 1, 0,12,45.00,60.00,Tuesday
7,-3.3
8,2523.0798642710558
9,1.0
10,493.55004396206007
11,1.0
12,493.55004396206007
13,2523.0798642710558
14,5.618003569007187
15,17.09413813795883
16,10.145507212550001
17,0.8352276084373216
18,5.232927327746816
2,1, 1, 1, 0,13, 0.00,15.00,Tuesday
7,-3.0249999999999996
8,2079.6739314454528
9,1.0
10,412.335026418112
11,1.0
12,412.335026418112
13,2079.6739314454528
14,5.486600192050667
15,14.249580742884305
16,9.0985192479435
17,0.45877339158010957
18,5.234782283968457
2,1, 1, 1, 0,13,15.00,30.00,Tuesday
7,-2.75
8,1520.1342619522389
9,1.0
10,305.94037763660148
11,1.0
12,305.94037763660148
13,1520.1342619522389
14,5.206546223705893
15,10.076111022490038
16,7.648123281809831
17,-0.16937962129532026
18,5.193742231706881
2,1, 1, 1, 0,13,30.00,45.00,Tuesday
7,-2.475
8,1386.3085600905648
9,1.0
10,281.0763483922329
11,1.0
12,281.0763483922329
13,1386.3085600905648
14,5.1886269807208349
15,9.562005454781671
16,7.312655980230886
17,-0.07326409638426412
18,5.140155518537777
2,1, 1, 1, 0,13,45.00,60.00,Tuesday
7,-2.2
8,1255.268410489491
9,1.0
10,256.7721209415886
11,1.0
12,256.7721209415886
13,1255.268410489491
14,5.157171426068868
15,8.956104225623906
16,7.042879062388067
17,0.04733868150140097
18,5.09476830761376
2,1, 1, 1, 0,14, 0.00,15.00,Tuesday
7,-1.9250000000000003
8,1024.4882421603564
9,1.0
10,210.73276284570657
11,1.0
12,210.73276284570657
13,1024.4882421603564
14,5.037485384575307
15,7.407740236830383
16,6.41924430903282
17,-0.07562328388905826
18,5.0538212797901969
2,1, 1, 1, 0,14,15.00,30.00,Tuesday
7,-1.6500000000000002
8,908.4451375527472
9,1.0
10,189.38488290342594
11,1.0
12,189.38488290342594
13,908.4451375527472
14,5.010599126820792
15,7.001622198882895
16,6.140584705696142
17,0.021563492051768664
18,5.017746435956364
2,1, 1, 1, 0,14,30.00,45.00,Tuesday
7,-1.375
8,866.8108248184888
9,1.0
10,179.3940297802914
11,1.0
12,179.3940297802914
13,866.8108248184888
14,5.009655318602498
15,7.123776025559275
16,6.067798054976151
17,0.23870022344760856
18,4.988215390284456
2,1, 1, 1, 0,14,45.00,60.00,Tuesday
7,-1.1
8,824.4852038249728
9,1.0
10,169.43349014176136
11,1.0
12,169.43349014176136
13,824.4852038249728
14,5.007139111543483
15,7.221780708895704
16,5.989843364606543
17,0.4537548587964011
18,4.965384447588929
2,1, 1, 1, 0,15, 0.00,15.00,Tuesday
7,-1.1
8,867.382080886117
9,1.0
10,178.15692317953907
11,1.0
12,178.15692317953907
13,867.382080886117
14,5.061068376068139
15,8.037649192622978
16,6.138364801369278
17,0.5944786188609328
18,4.952160493514002
2,1, 1, 1, 0,15,15.00,30.00,Tuesday
7,-1.1
8,814.6664417918773
9,1.0
10,166.40516310952945
11,1.0
12,166.40516310952945
13,814.6664417918773
14,5.019351613704105
15,7.674229801806364
16,5.971326912211168
17,0.5190824201822011
18,4.9430395835044209
2,1, 1, 1, 0,15,30.00,45.00,Tuesday
7,-1.1
8,686.0953301941563
9,1.0
10,140.8967369711617
11,1.0
12,140.8967369711617
13,686.0953301941563
14,4.920021112745711
15,6.466821065163661
16,5.542286727993542
17,0.26148335873773478
18,4.926545422140247
2,1, 1, 1, 0,15,45.00,60.00,Tuesday
7,-1.1
8,563.8880396485439
9,1.0
10,116.57355796743004
11,1.0
12,116.57355796743004
13,563.8880396485439
14,4.810438305873844
15,5.252446864090591
16,5.100437238931988
17,-0.010569433416549146
18,4.894891196849313
2,1, 1, 1, 0,16, 0.00,15.00,Tuesday
7,-1.1
8,446.95919507922596
9,1.0
10,93.14939272689483
11,1.0
12,93.14939272689483
13,446.95919507922596
14,4.7216093840594779
15,4.20297445781347
16,4.669948651184939
17,-0.21647263894550407
18,4.8484745365171089
2,1, 1, 1, 0,16,15.00,30.00,Tuesday
7,-1.1
8,277.1017240053432
9,1.0
10,57.94047897402063
11,1.0
12,57.94047897402063
13,277.1017240053432
14,4.548539583592532
15,2.074541678507965
16,4.043023112736421
17,-0.5998241863261455
18,4.781837009439475
2,1, 1, 1, 0,16,30.00,45.00,Tuesday
7,-1.1
8,214.5574849104759
9,1.0
10,45.38251793443488
11,1.0
12,45.38251793443488
13,214.5574849104759
14,4.4839507040291
15,1.459845805005683
16,3.7904845683031
17,-0.6980474884994692
18,4.703477603251934
2,1, 1, 1, 0,16,45.00,60.00,Tuesday
7,-1.1
8,149.60537890538817
9,1.0
10,32.02625108222755
11,1.0
12,32.02625108222755
13,149.60537890538817
14,4.384900935840998
15,0.5913978067339131
16,3.543155095394127
17,-0.8121970571902466
18,4.620725515772164
2,1, 1, 1, 0,17, 0.00,15.00,Tuesday
7,-1.1
8,81.9980015936516
9,1.0
10,17.762198626050539
11,1.0
12,17.762198626050539
13,81.9980015936516
14,4.256890792165939
15,-0.6670098797749396
16,3.235863944790026
17,-1.0524908197810988
18,4.533240625896529
2,1, 1, 1, 0,17,15.00,30.00,Tuesday
7,-1.1
8,0.0
9,0.0
10,0.0
11,0.0
12,0.0
13,0.0
14,4.079937878254099
15,-2.5074292819278956
16,2.851800087000356
17,-1.385180198049511
18,4.433605342226768
2,1, 1, 1, 0,17,30.00,45.00,Tuesday
7,-1.1
8,0.0
9,0.0
10,0.0
11,0.0
12,0.0
13,0.0
14,4.029161292313024
15,-2.6463878700013558
16,2.7606512523219637
17,-1.4286831519232238
18,4.336651507047437
2,1, 1, 1, 0,17,45.00,60.00,Tuesday
7,-1.1
8,0.0
9,0.0
10,0.0
11,0.0
12,0.0
13,0.0
14,3.964082817872671
15,-2.842986624640856
16,2.704565077771349
17,-1.4717177176877954
18,4.2553398100378889
2,1, 1, 1, 0,18, 0.00,15.00,Tuesday
7,-1.25
8,0.0
9,0.0
10,0.0
11,0.0
12,0.0
13,0.0
14,3.9106794441351946
15,-2.9900903014491195
16,2.6192245656595789
17,-1.6137266853193069
18,4.191010021262594
2,1, 1, 1, 0,18,15.00,30.00,Tuesday
7,-1.4
8,0.0
9,0.0
10,0.0
11,0.0
12,0.0
13,0.0
14,3.86239127868454
15,-3.1424624981270568
16,2.549050738898586
17,-1.7429012079144287
18,4.1390975038081969
2,1, 1, 1, 0,18,30.00,45.00,Tuesday
7,-1.5499999999999999
8,0.0
9,0.0
10,0.0
11,0.0
12,0.0
13,0.0
14,3.8184502032510014
15,-3.294272315455942
16,2.482912794439244
17,-1.871786814759048
18,4.094487608642539
2,1, 1, 1, 0,18,45.00,60.00,Tuesday
7,-1.7
8,0.0
9,0.0
10,0.0
11,0.0
12,0.0
13,0.0
14,3.7767675398936677
15,-3.446252111492214
16,2.4198796771709114
17,-1.999689192172923
18,4.053712719144958
2,1, 1, 1, 0,19, 0.00,15.00,Tuesday
7,-1.825
8,0.0
9,0.0
10,0.0
11,0.0
12,0.0
13,0.0
14,3.7618114392492925
15,-3.290302977681262
16,2.377316618707084
17,-2.059771295586188
18,4.018644199820654
2,1, 1, 1, 0,19,15.00,30.00,Tuesday
7,-1.9500000000000002
8,0.0
9,0.0
10,0.0
11,0.0
12,0.0
13,0.0
14,3.747146115914664
15,-3.216708275392985
16,2.3375740430742555
17,-2.1389166965996084
18,3.9910295501840635
2,1, 1, 1, 0,19,30.00,45.00,Tuesday
7,-2.075
8,0.0
9,0.0
10,0.0
11,0.0
12,0.0
13,0.0
14,3.7255030478420299
15,-3.288690989945332
16,2.2977294014693827
17,-2.2355739847171209
18,3.9690522128286629
2,1, 1, 1, 0,19,45.00,60.00,Tuesday
7,-2.2
8,0.0
9,0.0
10,0.0
11,0.0
12,0.0
13,0.0
14,3.708141212059023
15,-3.260416201079833
16,2.260087814306985
17,-2.3253708137358446
18,3.949620338214707
2,1, 1, 1, 0,20, 0.00,15.00,Tuesday
7,-1.9250000000000003
8,0.0
9,0.0
10,0.0
11,0.0
12,0.0
13,0.0
14,3.707232224743909
15,-2.957744109025901
16,2.3111184390245969
17,-2.105844081366854
18,3.9329829884442675
2,1, 1, 1, 0,20,15.00,30.00,Tuesday
7,-1.6500000000000002
8,0.0
9,0.0
10,0.0
11,0.0
12,0.0
13,0.0
14,3.70634924237896
15,-2.6582328599581688
16,2.3627505248168747
17,-1.8754022670360656
18,3.9195366968952758
2,1, 1, 1, 0,20,30.00,45.00,Tuesday
7,-1.375
8,0.0
9,0.0
10,0.0
11,0.0
12,0.0
13,0.0
14,3.7071366174959636
15,-2.3600510554886995
16,2.415857484584194
17,-1.6429386778100935
18,3.9088942427796518
2,1, 1, 1, 0,20,45.00,60.00,Tuesday
7,-1.1
8,0.0
9,0.0
10,0.0
11,0.0
12,0.0
13,0.0
14,3.7102570864719537
15,-2.0631980312950328
16,2.4708792335748628
17,-1.4086838107995164
18,3.9004830936452845
2,1, 1, 1, 0,21, 0.00,15.00,Tuesday
7,-1.25
8,0.0
9,0.0
10,0.0
11,0.0
12,0.0
13,0.0
14,3.6678408879997286
15,-2.350489593716292
16,2.421158173520439
17,-1.5389194899518089
18,3.887548194388081
2,1, 1, 1, 0,21,15.00,30.00,Tuesday
7,-1.4
8,0.0
9,0.0
10,0.0
11,0.0
12,0.0
13,0.0
14,3.627359788161595
15,-2.5702367413549918
16,2.36628289719215
17,-1.666684139250151
18,3.8653046315912436
2,1, 1, 1, 0,21,30.00,45.00,Tuesday
7,-1.5499999999999999
8,0.0
9,0.0
10,0.0
11,0.0
12,0.0
13,0.0
14,3.572859295221303
15,-2.9226296653225996
16,2.3044906695256488
17,-1.8092442304485417
18,3.832571478340358
2,1, 1, 1, 0,21,45.00,60.00,Tuesday
7,-1.7
8,0.0
9,0.0
10,0.0
11,0.0
12,0.0
13,0.0
14,3.5129309969713677
15,-3.3837409111147047
16,2.229452847812695
17,-1.9730998396937594
18,3.791274456013489
2,1, 1, 1, 0,22, 0.00,15.00,Tuesday
7,-1.5499999999999999
8,0.0
9,0.0
10,0.0
11,0.0
12,0.0
13,0.0
14,3.5251085307969398
15,-2.8853232701080877
16,2.2420746852507706
17,-1.8261891218885467
18,3.7553597500985029
2,1, 1, 1, 0,22,15.00,30.00,Tuesday
7,-1.4
8,0.0
9,0.0
10,0.0
11,0.0
12,0.0
13,0.0
14,3.5281212093968956
15,-2.5477893309100509
16,2.2722820874858487
17,-1.6853843022821594
18,3.7325431011421754
2,1, 1, 1, 0,22,30.00,45.00,Tuesday
7,-1.25
8,0.0
9,0.0
10,0.0
11,0.0
12,0.0
13,0.0
14,3.529071379250878
15,-2.324394827469516
16,2.300187450618864
17,-1.5570686184403258
18,3.7207672127544209
2,1, 1, 1, 0,22,45.00,60.00,Tuesday
7,-1.1
8,0.0
9,0.0
10,0.0
11,0.0
12,0.0
13,0.0
14,3.5339358510623879
15,-2.035917252429031
16,2.3354978292365446
17,-1.413538919861935
18,3.7148972582751726
2,1, 1, 1, 0,23, 0.00,15.00,Tuesday
7,-1.25
8,0.0
9,0.0
10,0.0
11,0.0
12,0.0
13,0.0
14,3.4916691454489867
15,-2.339469821566416
16,2.2475298732463786
17,-1.6863108907424476
18,3.704496865169204
2,1, 1, 1, 0,23,15.00,30.00,Tuesday
7,-1.4
8,0.0
9,0.0
10,0.0
11,0.0
12,0.0
13,0.0
14,3.452421009924258
15,-2.643995600473509
16,2.1490905081681719
17,-1.977033943275842
18,3.6841156688625915
2,1, 1, 1, 0,23,30.00,45.00,Tuesday
7,-1.5499999999999999
8,0.0
9,0.0
10,0.0
11,0.0
12,0.0
13,0.0
14,3.4088961190653408
15,-2.9491796832244945
16,2.0496960847999619
17,-2.267868369702569
18,3.654520552965368
2,1, 1, 1, 0,23,45.00,60.00,Tuesday
7,-1.7
8,0.0
9,0.0
10,0.0
11,0.0
12,0.0
13,0.0
14,3.3615703195124255
15,-3.254707809912949
16,1.9468111562405284
17,-2.5592193381689869
18,3.6185076363396346
2,1, 1, 1, 0,24, 0.00,15.00,Tuesday
7,-1.7
8,0.0
9,0.0
10,0.0
11,0.0
12,0.0
13,0.0
14,3.331881104622218
15,-3.308549133659132
16,1.9038590737520167
17,-2.619728573390489
18,3.5816513539245937
2,1, 1, 1, 0,24,15.00,30.00,Tuesday
7,-1.7
8,0.0
9,0.0
10,0.0
11,0.0
12,0.0
13,0.0
14,3.2990988456302108
15,-3.3631317986277708
16,1.865007710996906
17,-2.6791637552003069
18,3.547018033295146
2,1, 1, 1, 0,24,30.00,45.00,Tuesday
7,-1.7
8,0.0
9,0.0
10,0.0
11,0.0
12,0.0
13,0.0
14,3.2671996317883416
15,-3.4175698126251738
16,1.825632903955352
17,-2.7387598353516866
18,3.5147246293671534
2,1, 1, 1, 0,24,45.00,60.00,Tuesday
7,-1.7
8,0.0
9,0.0
10,0.0
11,0.0
12,0.0
13,0.0
14,3.2360019676457538
15,-3.4720095387834779
16,1.7870301950158592
17,-2.7981074308609097
18,3.4838647445987589
End of Data
 Number of Records Written=        1152
