Program Version,EnergyPlus, Version 9.5.0-de239b2e5f, YMD=2022.11.08 09:46
1,5,Environment Title[],Latitude[deg],Longitude[deg],Time Zone[],Elevation[m]
2,8,Day of Simulation[],Month[],Day of Month[],DST Indicator[1=yes 0=no],Hour[],StartMinute[],EndMinute[],DayType
3,5,Cumulative Day of Simulation[],Month[],Day of Month[],DST Indicator[1=yes 0=no],DayType  ! When Daily Report Variables Requested
4,2,Cumulative Days of Simulation[],Month[]  ! When Monthly Report Variables Requested
5,1,Cumulative Days of Simulation[] ! When Run Period Report Variables Requested
6,1,Calendar Year of Simulation[] ! When Annual Report Variables Requested
7,1,Environment,Site Outdoor Air Drybulb Temperature [C] !TimeStep
8,1,ZONE ONE,Zone Windows Total Transmitted Solar Radiation Rate [W] !TimeStep
9,1,ZN001:WALL001,Surface Outside Face Sunlit Fraction [] !TimeStep
10,1,ZN001:WALL001,Surface Outside Face Incident Solar Radiation Rate per Area [W/m2] !TimeStep
11,1,ZN001:WALL001:WIN001,Surface Outside Face Sunlit Fraction [] !TimeStep
12,1,ZN001:WALL001:WIN001,Surface Outside Face Incident Solar Radiation Rate per Area [W/m2] !TimeStep
13,1,ZN001:WALL001:WIN001,Surface Window Transmitted Solar Radiation Rate [W] !TimeStep
14,1,ZN001:WALL001,Surface Inside Face Temperature [C] !TimeStep
15,1,ZN001:WALL001,Surface Outside Face Temperature [C] !TimeStep
16,1,ZN001:WALL001:WIN001,Surface Inside Face Temperature [C] !TimeStep
17,1,ZN001:WALL001:WIN001,Surface Outside Face Temperature [C] !TimeStep
18,1,ZONE ONE,Zone Mean Air Temperature [C] !TimeStep
End of Data Dictionary
1,RUN PERIOD 1,  41.98, -87.92,  -6.00, 201.00
2,1, 1, 1, 0, 1, 0.00,15.00,Tuesday
7,-4.324999999999999
8,0.0
9,0.0
10,0.0
11,0.0
12,0.0
13,0.0
14,1.8725256078746884
15,-5.969877271261318
16,0.2647912493678177
17,-5.066713232983375
18,2.2288292127102418
2,1, 1, 1, 0, 1,15.00,30.00,Tuesday
7,-6.949999999999999
8,0.0
9,0.0
10,0.0
11,0.0
12,0.0
13,0.0
14,1.698018737024579
15,-8.437784118835668
16,-0.35242040631158036
17,-7.154444336654819
18,2.1438284127924378
2,1, 1, 1, 0, 1,30.00,45.00,Tuesday
7,-9.575
8,0.0
9,0.0
10,0.0
11,0.0
12,0.0
13,0.0
14,1.50258295245996
15,-10.914088022469164
16,-0.9715108146508555
17,-9.248790584202652
18,2.025876134942382
2,1, 1, 1, 0, 1,45.00,60.00,Tuesday
7,-12.2
8,0.0
9,0.0
10,0.0
11,0.0
12,0.0
13,0.0
14,1.2915942203898532
15,-13.396897009920162
16,-1.6044394587413536
17,-11.351382242974183
18,1.8842480771339337
2,1, 1, 1, 0, 2, 0.00,15.00,Tuesday
7,-12.075
8,0.0
9,0.0
10,0.0
11,0.0
12,0.0
13,0.0
14,1.2356159229385285
15,-13.198489549367692
16,-1.6658792213004859
17,-11.203558863554008
18,1.7560374035390978
2,1, 1, 1, 0, 2,15.00,30.00,Tuesday
7,-11.95
8,0.0
9,0.0
10,0.0
11,0.0
12,0.0
13,0.0
14,1.164951164037554
15,-13.021186923549277
16,-1.6881926444826832
17,-11.055763490743459
18,1.6592474724207698
2,1, 1, 1, 0, 2,30.00,45.00,Tuesday
7,-11.825
8,0.0
9,0.0
10,0.0
11,0.0
12,0.0
13,0.0
14,1.1111952543800295
15,-12.842687346459496
16,-1.7055640828741048
17,-10.907588121122786
18,1.5895824182244594
2,1, 1, 1, 0, 2,45.00,60.00,Tuesday
7,-11.7
8,0.0
9,0.0
10,0.0
11,0.0
12,0.0
13,0.0
14,1.068821791448104
15,-12.66424741625218
16,-1.7103409325944768
17,-10.756751164485934
18,1.5364941617786763
2,1, 1, 1, 0, 3, 0.00,15.00,Tuesday
7,-11.549999999999999
8,0.0
9,0.0
10,0.0
11,0.0
12,0.0
13,0.0
14,1.0281596164357978
15,-12.539767054393371
16,-1.7075969544689543
17,-10.62742098334985
18,1.4909750988360083
2,1, 1, 1, 0, 3,15.00,30.00,Tuesday
7,-11.399999999999999
8,0.0
9,0.0
10,0.0
11,0.0
12,0.0
13,0.0
14,0.9909832911232995
15,-12.416720850383318
16,-1.7056150692643542
17,-10.489967732712956
18,1.4482761857506624
2,1, 1, 1, 0, 3,30.00,45.00,Tuesday
7,-11.25
8,0.0
9,0.0
10,0.0
11,0.0
12,0.0
13,0.0
14,0.9548580776126401
15,-12.295282966922262
16,-1.7021306180643024
17,-10.351766338968162
18,1.4068166291530034
2,1, 1, 1, 0, 3,45.00,60.00,Tuesday
7,-11.1
8,0.0
9,0.0
10,0.0
11,0.0
12,0.0
13,0.0
14,0.9192909615533127
15,-12.175514316119305
16,-1.6979965605103189
17,-10.213801842480052
18,1.3662742293178703
2,1, 1, 1, 0, 4, 0.00,15.00,Tuesday
7,-11.1
8,0.0
9,0.0
10,0.0
11,0.0
12,0.0
13,0.0
14,0.8801573782533364
15,-12.144787141726063
16,-1.7406968411805793
17,-10.228617545675434
18,1.3257989053583419
2,1, 1, 1, 0, 4,15.00,30.00,Tuesday
7,-11.1
8,0.0
9,0.0
10,0.0
11,0.0
12,0.0
13,0.0
14,0.8414286392160748
15,-12.115250193064668
16,-1.7781568978139149
17,-10.250494934392635
18,1.2850501317489443
2,1, 1, 1, 0, 4,30.00,45.00,Tuesday
7,-11.1
8,0.0
9,0.0
10,0.0
11,0.0
12,0.0
13,0.0
14,0.8025659815257139
15,-12.087354121763588
16,-1.8149062136474186
17,-10.27236485198307
18,1.2440950373483844
2,1, 1, 1, 0, 4,45.00,60.00,Tuesday
7,-11.1
8,0.0
9,0.0
10,0.0
11,0.0
12,0.0
13,0.0
14,0.7636440347710871
15,-12.060964895500922
16,-1.851468073653166
17,-10.293588345410399
18,1.2030898419818537
2,1, 1, 1, 0, 5, 0.00,15.00,Tuesday
7,-10.975
8,0.0
9,0.0
10,0.0
11,0.0
12,0.0
13,0.0
14,0.730422541594979
15,-11.938722726377949
16,-1.8534648366559168
17,-10.204963105498223
18,1.1631252883493966
2,1, 1, 1, 0, 5,15.00,30.00,Tuesday
7,-10.85
8,0.0
9,0.0
10,0.0
11,0.0
12,0.0
13,0.0
14,0.6973840773131199
15,-11.816577052990115
16,-1.8572267236945664
17,-10.108551659169848
18,1.1246694732741894
2,1, 1, 1, 0, 5,30.00,45.00,Tuesday
7,-10.725
8,0.0
9,0.0
10,0.0
11,0.0
12,0.0
13,0.0
14,0.6652938851867387
15,-11.694410969910653
16,-1.8607414907096427
17,-10.011308959976134
18,1.0875327075034325
2,1, 1, 1, 0, 5,45.00,60.00,Tuesday
7,-10.6
8,0.0
9,0.0
10,0.0
11,0.0
12,0.0
13,0.0
14,0.6340084932151932
15,-11.57225482053104
16,-1.863515441220784
17,-9.913841973192917
18,1.0513680899468668
2,1, 1, 1, 0, 6, 0.00,15.00,Tuesday
7,-10.6
8,0.0
9,0.0
10,0.0
11,0.0
12,0.0
13,0.0
14,0.5954057641849899
15,-11.57305004474463
16,-1.8934511767479308
17,-9.915709121796454
18,1.0146949859749215
2,1, 1, 1, 0, 6,15.00,30.00,Tuesday
7,-10.6
8,0.0
9,0.0
10,0.0
11,0.0
12,0.0
13,0.0
14,0.5574145887426119
15,-11.573756942631034
16,-1.9250828287298987
17,-9.921135021104647
18,0.9767228823810934
2,1, 1, 1, 0, 6,30.00,45.00,Tuesday
7,-10.6
8,0.0
9,0.0
10,0.0
11,0.0
12,0.0
13,0.0
14,0.5188971065140886
15,-11.574507576055528
16,-1.9566338418347869
17,-9.927379024061793
18,0.9376336814795485
2,1, 1, 1, 0, 6,45.00,60.00,Tuesday
7,-10.6
8,0.0
9,0.0
10,0.0
11,0.0
12,0.0
13,0.0
14,0.48002146117124719
15,-11.575258588110259
16,-1.9884819443446987
17,-9.933972412388357
18,0.8979086815305838
2,1, 1, 1, 0, 7, 0.00,15.00,Tuesday
7,-10.6
8,0.0
9,0.0
10,0.0
11,0.0
12,0.0
13,0.0
14,0.4432744319120415
15,-11.549925729132927
16,-2.026248407379171
17,-9.949356797982887
18,0.8581894678513879
2,1, 1, 1, 0, 7,15.00,30.00,Tuesday
7,-10.6
8,0.0
9,0.0
10,0.0
11,0.0
12,0.0
13,0.0
14,0.4063385085455271
15,-11.525908676975347
16,-2.060352860165949
17,-9.96629833864472
18,0.8189209669798847
2,1, 1, 1, 0, 7,30.00,45.00,Tuesday
7,-10.6
8,0.0
9,0.0
10,0.0
11,0.0
12,0.0
13,0.0
14,0.3696470092593775
15,-11.503106955414145
16,-2.0940511860515018
17,-9.982978563272696
18,0.7801468709514993
2,1, 1, 1, 0, 7,45.00,60.00,Tuesday
7,-10.6
8,0.0
9,0.0
10,0.0
11,0.0
12,0.0
13,0.0
14,0.33324136524732936
15,-11.48144931998751
16,-2.127346293268147
17,-9.999093333909628
18,0.7417605075633511
2,1, 1, 1, 0, 8, 0.00,15.00,Tuesday
7,-10.45
8,0.0
9,0.0
10,0.0
11,0.0
12,0.0
13,0.0
14,0.29593296528923898
15,-11.433638108034924
16,-2.141341222305755
17,-9.955303778295047
18,0.7033261744021189
2,1, 1, 1, 0, 8,15.00,30.00,Tuesday
7,-10.3
8,80.77203531483181
9,1.0
10,22.819555959623899
11,1.0
12,22.819555959623899
13,80.77203531483181
14,0.3652876280607586
15,-9.760786290985426
16,-1.737877931067942
17,-9.562868338734575
18,0.68001096982504
2,1, 1, 1, 0, 8,30.00,45.00,Tuesday
7,-10.15
8,398.40798447313048
9,1.0
10,109.75755355442667
11,1.0
12,109.75755355442667
13,398.40798447313048
14,0.7246215942400461
15,-3.4011138107575715
16,-0.0791414626075948
17,-8.171317128504825
18,0.7130829494753425
2,1, 1, 1, 0, 8,45.00,60.00,Tuesday
7,-10.0
8,729.4521313362143
9,1.0
10,195.8764694434918
11,1.0
12,195.8764694434918
13,729.4521313362143
14,1.1915852020802289
15,3.1034954691606466
16,1.7221912176541992
17,-6.7938884317388219
18,0.8070262799831846
2,1, 1, 1, 0, 9, 0.00,15.00,Tuesday
7,-9.725
8,1064.1872083889419
9,1.0
10,278.97248314719988
11,1.0
12,278.97248314719988
13,1064.1872083889419
14,1.5216629029711038
15,8.268676269832449
16,3.303454217874105
17,-5.611403526479421
18,0.9497768621676699
2,1, 1, 1, 0, 9,15.00,30.00,Tuesday
7,-9.45
8,1421.6919749554004
9,1.0
10,364.91995730569456
11,1.0
12,364.91995730569456
13,1421.6919749554004
14,1.901170761803733
15,13.352187994911358
16,4.862577015372324
17,-4.445691881463006
18,1.1331654279654782
2,1, 1, 1, 0, 9,30.00,45.00,Tuesday
7,-9.175
8,1664.1172986272364
9,1.0
10,420.35879993239237
11,1.0
12,420.35879993239237
13,1664.1172986272364
14,2.158706980199823
15,16.111257799701549
16,5.883819072927167
17,-3.739792557040687
18,1.3376476059203493
2,1, 1, 1, 0, 9,45.00,60.00,Tuesday
7,-8.9
8,1917.2902054558807
9,1.0
10,478.00138373643099
11,1.0
12,478.00138373643099
13,1917.2902054558807
14,2.4633091518490635
15,19.106899893735208
16,6.909824097624835
17,-3.005653210902551
18,1.5540478285813584
2,1, 1, 1, 0,10, 0.00,15.00,Tuesday
7,-8.350000000000002
8,2177.125433545313
9,1.0
10,536.9185644770597
11,1.0
12,536.9185644770597
13,2177.125433545313
14,2.708902262706411
15,20.227238662390687
16,7.960262808140897
17,-2.255997367985117
18,1.7883660904652359
2,1, 1, 1, 0,10,15.00,30.00,Tuesday
7,-7.800000000000001
8,2446.6582109258558
9,1.0
10,598.0969199229219
11,1.0
12,598.0969199229219
13,2446.6582109258558
14,2.9803870934804199
15,21.482401143182746
16,9.033176614548552
17,-1.5089520433393773
18,2.0385576418511719
2,1, 1, 1, 0,10,30.00,45.00,Tuesday
7,-7.25
8,2627.304529429676
9,1.0
10,637.6133352894237
11,1.0
12,637.6133352894237
13,2627.304529429676
14,3.183483668824767
15,21.544024247393066
16,9.782496100847311
17,-1.0039788066951019
18,2.2901158884493757
2,1, 1, 1, 0,10,45.00,60.00,Tuesday
7,-6.7
8,2805.335684053727
9,1.0
10,676.6412284283772
11,1.0
12,676.6412284283772
13,2805.335684053727
14,3.4033518764604988
15,21.70573177539893
16,10.507390114054772
17,-0.5027784339035861
18,2.5340881410566724
2,1, 1, 1, 0,11, 0.00,15.00,Tuesday
7,-6.275
8,2980.0559873517865
9,1.0
10,715.0112779846514
11,1.0
12,715.0112779846514
13,2980.0559873517865
14,3.699732735979044
15,23.80312465750523
16,11.273227138705807
17,0.2497456055081102
18,2.774352903740208
2,1, 1, 1, 0,11,15.00,30.00,Tuesday
7,-5.85
8,3150.490457900285
9,1.0
10,752.5077794605232
11,1.0
12,752.5077794605232
13,3150.490457900285
14,3.9823472817475005
15,25.738011612062807
16,12.026080833468314
17,0.9795455071956667
18,3.015934865321654
2,1, 1, 1, 0,11,30.00,45.00,Tuesday
7,-5.425
8,3104.448386948792
9,1.0
10,742.5988714321785
11,1.0
12,742.5988714321785
13,3104.448386948792
14,4.140808138251567
15,25.58980234224296
16,12.121925625949018
17,1.254258492057204
18,3.243018615350584
2,1, 1, 1, 0,11,45.00,60.00,Tuesday
7,-5.0
8,3036.1618498006475
9,1.0
10,727.8169025450712
11,1.0
12,727.8169025450712
13,3036.1618498006475
14,4.295167143119961
15,25.360320009970125
16,12.125788452557572
17,1.4921639279559714
18,3.4444699959177695
2,1, 1, 1, 0,12, 0.00,15.00,Tuesday
7,-4.575
8,2917.896098238813
9,1.0
10,700.3759009170325
11,1.0
12,700.3759009170325
13,2917.896098238813
14,4.398947814601998
15,24.617483907100703
16,11.952886817549996
17,1.6535728483949015
18,3.6149086014769309
2,1, 1, 1, 0,12,15.00,30.00,Tuesday
7,-4.15
8,2827.328358618354
9,1.0
10,681.6705029034473
11,1.0
12,681.6705029034473
13,2827.328358618354
14,4.521633000362811
15,24.286789230143158
16,11.88911346069085
17,1.898456379555455
18,3.7616582100465707
2,1, 1, 1, 0,12,30.00,45.00,Tuesday
7,-3.7249999999999998
8,2477.3799538173818
9,1.0
10,602.01865277251
11,1.0
12,602.01865277251
13,2477.3799538173818
14,4.434019279136418
15,21.258340123035123
16,10.968197298373639
17,1.5850834975718727
18,3.866297392221806
2,1, 1, 1, 0,12,45.00,60.00,Tuesday
7,-3.3
8,2020.4877249648576
9,1.0
10,493.55004396206007
11,1.0
12,493.55004396206007
13,2020.4877249648576
14,4.250625602843384
15,17.07957075971904
16,9.545095641807564
17,0.977752421359753
18,3.9100816816369314
2,1, 1, 1, 0,13, 0.00,15.00,Tuesday
7,-3.0249999999999996
8,1660.5745456502348
9,1.0
10,412.335026418112
11,1.0
12,412.335026418112
13,1660.5745456502348
14,4.119697396327252
15,14.234659100176378
16,8.444440665479704
17,0.5645387002771258
18,3.9062370130764405
2,1, 1, 1, 0,13,15.00,30.00,Tuesday
7,-2.75
8,1209.7628797742839
9,1.0
10,305.94037763660148
11,1.0
12,305.94037763660148
13,1209.7628797742839
14,3.852208374958464
15,10.060783564823366
16,6.91236256319894
17,-0.11985230145035075
18,3.862273118710117
2,1, 1, 1, 0,13,30.00,45.00,Tuesday
7,-2.475
8,1101.294927638678
9,1.0
10,281.0763483922329
11,1.0
12,281.0763483922329
13,1101.294927638678
14,3.8391985943074848
15,9.546236159765018
16,6.565161845664875
17,-0.03578049774625924
18,3.804927482108603
2,1, 1, 1, 0,13,45.00,60.00,Tuesday
7,-2.2
8,995.0717522405812
9,1.0
10,256.7721209415886
11,1.0
12,256.7721209415886
13,995.0717522405812
14,3.8083921523912926
15,8.940369330839817
16,6.2796462112547719
17,0.0727313783477257
18,3.756331631663572
2,1, 1, 1, 0,14, 0.00,15.00,Tuesday
7,-1.9250000000000003
8,810.9411527545005
9,1.0
10,210.73276284570657
11,1.0
12,210.73276284570657
13,810.9411527545005
14,3.7001230925471089
15,7.3914903058046799
16,5.613398655229389
17,-0.08025406164364313
18,3.7130037097731107
2,1, 1, 1, 0,14,15.00,30.00,Tuesday
7,-1.6500000000000002
8,716.8870233283402
9,1.0
10,189.38488290342594
11,1.0
12,189.38488290342594
13,716.8870233283402
14,3.674254410164436
15,6.984838328933261
16,5.324848510734682
17,0.005641759412810643
18,3.6756545608263857
2,1, 1, 1, 0,14,30.00,45.00,Tuesday
7,-1.375
8,684.7513882752521
9,1.0
10,179.3940297802914
11,1.0
12,179.3940297802914
13,684.7513882752521
14,3.676118885789924
15,7.10642017482028
16,5.236092193645959
17,0.21159952755130008
18,3.6462049733599368
2,1, 1, 1, 0,14,45.00,60.00,Tuesday
7,-1.1
8,651.8043846955211
9,1.0
10,169.43349014176136
11,1.0
12,169.43349014176136
13,651.8043846955211
14,3.676092817501323
15,7.20376082940585
16,5.144771187041101
17,0.4155651558181148
18,3.6242615469557455
2,1, 1, 1, 0,15, 0.00,15.00,Tuesday
7,-1.1
8,685.2590699237333
9,1.0
10,178.15692317953907
11,1.0
12,178.15692317953907
13,685.2590699237333
14,3.7263849140259199
15,8.018709345118629
16,5.301189041508451
17,0.5615531488373335
18,3.6125386687773615
2,1, 1, 1, 0,15,15.00,30.00,Tuesday
7,-1.1
8,643.5222979793728
9,1.0
10,166.40516310952945
11,1.0
12,166.40516310952945
13,643.5222979793728
14,3.6886809548169308
15,7.655024892270727
16,5.118114839777547
17,0.4740209887852984
18,3.6047984287997445
2,1, 1, 1, 0,15,30.00,45.00,Tuesday
7,-1.1
8,540.8667575023247
9,1.0
10,140.8967369711617
11,1.0
12,140.8967369711617
13,540.8667575023247
14,3.5977642817725865
15,6.447154149030491
16,4.671774100174275
17,0.1970842567018849
18,3.5887178900953544
2,1, 1, 1, 0,15,45.00,60.00,Tuesday
7,-1.1
8,443.5262164224126
9,1.0
10,116.57355796743004
11,1.0
12,116.57355796743004
13,443.5262164224126
14,3.49699493018721
15,5.232850608780729
16,4.220574716153806
17,-0.09368977876300733
18,3.5576647992929284
2,1, 1, 1, 0,16, 0.00,15.00,Tuesday
7,-1.1
8,350.7112187131205
9,1.0
10,93.14939272689483
11,1.0
12,93.14939272689483
13,350.7112187131205
14,3.409356081402772
15,4.179964612054352
16,3.7858715337316655
17,-0.3204919236857222
18,3.5125749121701399
2,1, 1, 1, 0,16,15.00,30.00,Tuesday
7,-1.1
8,216.90926295026015
9,1.0
10,57.94047897402063
11,1.0
12,57.94047897402063
13,216.90926295026015
14,3.2443291069985138
15,2.050073610958139
16,3.078506728405273
17,-0.7514978759128326
18,3.4500118666812726
2,1, 1, 1, 0,16,30.00,45.00,Tuesday
7,-1.1
8,167.49925695659693
9,1.0
10,45.38251793443488
11,1.0
12,45.38251793443488
13,167.49925695659693
14,3.1841026880691318
15,1.433313961523619
16,2.8078453343621279
17,-0.8756823488487271
18,3.377922157267726
2,1, 1, 1, 0,16,45.00,60.00,Tuesday
7,-1.1
8,116.51653412748593
9,1.0
10,32.02625108222755
11,1.0
12,32.02625108222755
13,116.51653412748593
14,3.0911265983392846
15,0.5622696096611606
16,2.5354454534306116
17,-1.0195461990344939
18,3.302797309562264
2,1, 1, 1, 0,17, 0.00,15.00,Tuesday
7,-1.1
8,63.756991165459897
9,1.0
10,17.762198626050539
11,1.0
12,17.762198626050539
13,63.756991165459897
14,2.9696737813445925
15,-0.6996382011290776
16,2.204418308670597
17,-1.3005755709512528
18,3.2217851726328496
2,1, 1, 1, 0,17,15.00,30.00,Tuesday
7,-1.1
8,0.0
9,0.0
10,0.0
11,0.0
12,0.0
13,0.0
14,2.799853161902904
15,-2.54154345292729
16,1.79437233448391
17,-1.6548030586160963
18,3.125683582628656
2,1, 1, 1, 0,17,30.00,45.00,Tuesday
7,-1.1
8,0.0
9,0.0
10,0.0
11,0.0
12,0.0
13,0.0
14,2.752065474713313
15,-2.6820528282180686
16,1.704430504556285
17,-1.7096169596319442
18,3.0303396215553168
2,1, 1, 1, 0,17,45.00,60.00,Tuesday
7,-1.1
8,0.0
9,0.0
10,0.0
11,0.0
12,0.0
13,0.0
14,2.689848933402476
15,-2.8814873205387756
16,1.6461791266705178
17,-1.7696063913770673
18,2.9498367831747878
2,1, 1, 1, 0,18, 0.00,15.00,Tuesday
7,-1.25
8,0.0
9,0.0
10,0.0
11,0.0
12,0.0
13,0.0
14,2.639238184961175
15,-3.0282409105396579
16,1.5641971705983906
17,-1.9105469025778348
18,2.886453728773723
2,1, 1, 1, 0,18,15.00,30.00,Tuesday
7,-1.4
8,0.0
9,0.0
10,0.0
11,0.0
12,0.0
13,0.0
14,2.593691638895332
15,-3.1805970029603198
16,1.4955818183916563
17,-2.0404492888363849
18,2.8360491588544476
2,1, 1, 1, 0,18,30.00,45.00,Tuesday
7,-1.5499999999999999
8,0.0
9,0.0
10,0.0
11,0.0
12,0.0
13,0.0
14,2.552646473955746
15,-3.3323380380306086
16,1.4311610439202696
17,-2.1698500482251008
18,2.7935548080773868
2,1, 1, 1, 0,18,45.00,60.00,Tuesday
7,-1.7
8,0.0
9,0.0
10,0.0
11,0.0
12,0.0
13,0.0
14,2.5150386565223736
15,-3.4842489979560065
16,1.3699788350907057
17,-2.2983003857954147
18,2.755491702468717
2,1, 1, 1, 0,19, 0.00,15.00,Tuesday
7,-1.825
8,0.0
9,0.0
10,0.0
11,0.0
12,0.0
13,0.0
14,2.503966081465923
15,-3.324010333411238
16,1.3368088553854705
17,-2.3334858936602815
18,2.723586946614489
2,1, 1, 1, 0,19,15.00,30.00,Tuesday
7,-1.9500000000000002
8,0.0
9,0.0
10,0.0
11,0.0
12,0.0
13,0.0
14,2.4924778538010234
15,-3.2465614608496256
16,1.3060252591042172
17,-2.3900203505814945
18,2.699314871559518
2,1, 1, 1, 0,19,30.00,45.00,Tuesday
7,-2.075
8,0.0
9,0.0
10,0.0
11,0.0
12,0.0
13,0.0
14,2.475954157250999
15,-3.317441428888663
16,1.2696187262308172
17,-2.4805123926496437
18,2.6809199155472775
2,1, 1, 1, 0,19,45.00,60.00,Tuesday
7,-2.2
8,0.0
9,0.0
10,0.0
11,0.0
12,0.0
13,0.0
14,2.4627609891048207
15,-3.285815697560781
16,1.240672541115714
17,-2.5516406591261218
18,2.6653828424684495
2,1, 1, 1, 0,20, 0.00,15.00,Tuesday
7,-1.9250000000000003
8,0.0
9,0.0
10,0.0
11,0.0
12,0.0
13,0.0
14,2.4656964152846045
15,-2.9822745729021626
16,1.297242203366352
17,-2.324450662634831
18,2.6527144410864036
2,1, 1, 1, 0,20,15.00,30.00,Tuesday
7,-1.6500000000000002
8,0.0
9,0.0
10,0.0
11,0.0
12,0.0
13,0.0
14,2.4691009235057339
15,-2.68196929591328
16,1.3542700360531513
17,-2.0886144856099237
18,2.643188839555088
2,1, 1, 1, 0,20,30.00,45.00,Tuesday
7,-1.375
8,0.0
9,0.0
10,0.0
11,0.0
12,0.0
13,0.0
14,2.474037885657352
15,-2.3830526097726039
16,1.4128464573719839
17,-1.8510540042133244
18,2.6364214527560985
2,1, 1, 1, 0,20,45.00,60.00,Tuesday
7,-1.1
8,0.0
9,0.0
10,0.0
11,0.0
12,0.0
13,0.0
14,2.4804469413820438
15,-2.0854964655604055
16,1.4732460064338398
17,-1.6119495674845439
18,2.631784246479151
2,1, 1, 1, 0,21, 0.00,15.00,Tuesday
7,-1.25
8,0.0
9,0.0
10,0.0
11,0.0
12,0.0
13,0.0
14,2.4415974180521879
15,-2.3762897672722076
16,1.4192702289554973
17,-1.7614198479977859
18,2.622767621223142
2,1, 1, 1, 0,21,15.00,30.00,Tuesday
7,-1.4
8,0.0
9,0.0
10,0.0
11,0.0
12,0.0
13,0.0
14,2.403772128258454
15,-2.59791800989497
16,1.3642514597015066
17,-1.8995381978938327
18,2.604599045743132
2,1, 1, 1, 0,21,30.00,45.00,Tuesday
7,-1.5499999999999999
8,0.0
9,0.0
10,0.0
11,0.0
12,0.0
13,0.0
14,2.3518136964321285
15,-2.954899492734394
16,1.297240088289982
17,-2.0670188311240738
18,2.5758536272541474
2,1, 1, 1, 0,21,45.00,60.00,Tuesday
7,-1.7
8,0.0
9,0.0
10,0.0
11,0.0
12,0.0
13,0.0
14,2.294541044737102
15,-3.421204436110139
16,1.2169048193034087
17,-2.2636590135953726
18,2.5382582185254756
2,1, 1, 1, 0,22, 0.00,15.00,Tuesday
7,-1.5499999999999999
8,0.0
9,0.0
10,0.0
11,0.0
12,0.0
13,0.0
14,2.3106642977151119
15,-2.916583735456623
16,1.2398491839516055
17,-2.0745789278920485
18,2.505651440115379
2,1, 1, 1, 0,22,15.00,30.00,Tuesday
7,-1.4
8,0.0
9,0.0
10,0.0
11,0.0
12,0.0
13,0.0
14,2.318464127912395
15,-2.5748107717319406
16,1.2831920867671443
17,-1.9155643405232468
18,2.486026573016902
2,1, 1, 1, 0,22,30.00,45.00,Tuesday
7,-1.25
8,0.0
9,0.0
10,0.0
11,0.0
12,0.0
13,0.0
14,2.3238535392123547
15,-2.3495228610915257
16,1.3176769367937596
17,-1.776279477717253
18,2.4775590960426325
2,1, 1, 1, 0,22,45.00,60.00,Tuesday
7,-1.1
8,0.0
9,0.0
10,0.0
11,0.0
12,0.0
13,0.0
14,2.333039144113452
15,-2.057635969782852
16,1.35859686968206
17,-1.6043575486355622
18,2.475199936287496
2,1, 1, 1, 0,23, 0.00,15.00,Tuesday
7,-1.25
8,0.0
9,0.0
10,0.0
11,0.0
12,0.0
13,0.0
14,2.2945786700670389
15,-2.3613261616546628
16,1.275290740636592
17,-1.8845262801227137
18,2.4688384416156858
2,1, 1, 1, 0,23,15.00,30.00,Tuesday
7,-1.4
8,0.0
9,0.0
10,0.0
11,0.0
12,0.0
13,0.0
14,2.2581630808371968
15,-2.6658538577425618
16,1.1788928877425633
17,-2.1745041496492378
18,2.452845419221055
2,1, 1, 1, 0,23,30.00,45.00,Tuesday
7,-1.5499999999999999
8,0.0
9,0.0
10,0.0
11,0.0
12,0.0
13,0.0
14,2.2179040261163025
15,-2.970986631737122
16,1.0813094400360229
17,-2.4645033704406957
18,2.4276336891958736
2,1, 1, 1, 0,23,45.00,60.00,Tuesday
7,-1.7
8,0.0
9,0.0
10,0.0
11,0.0
12,0.0
13,0.0
14,2.1739452580941864
15,-3.2764715977085219
16,0.9804546657719016
17,-2.75500855439725
18,2.395797115487023
2,1, 1, 1, 0,24, 0.00,15.00,Tuesday
7,-1.7
8,0.0
9,0.0
10,0.0
11,0.0
12,0.0
13,0.0
14,2.147933281618934
15,-3.3302000619563039
16,0.9405621129463384
17,-2.814333776280705
18,2.3628067164438124
2,1, 1, 1, 0,24,15.00,30.00,Tuesday
7,-1.7
8,0.0
9,0.0
10,0.0
11,0.0
12,0.0
13,0.0
14,2.1188263798193587
15,-3.3847203631189064
16,0.9046850674795905
17,-2.872933689701995
18,2.3317992934171238
2,1, 1, 1, 0,24,30.00,45.00,Tuesday
7,-1.7
8,0.0
9,0.0
10,0.0
11,0.0
12,0.0
13,0.0
14,2.0904662310038057
15,-3.439099232954692
16,0.8682178695506195
17,-2.931741001800276
18,2.3030216981558198
2,1, 1, 1, 0,24,45.00,60.00,Tuesday
7,-1.7
8,0.0
9,0.0
10,0.0
11,0.0
12,0.0
13,0.0
14,2.0627450264917868
15,-3.4934780448172324
16,0.832439708416814
17,-2.9903262440002438
18,2.275656439040704
End of Data
 Number of Records Written=        1152
