Program Version,EnergyPlus, Version 9.5.0-de239b2e5f, YMD=2022.11.08 09:46
1,5,Environment Title[],Latitude[deg],Longitude[deg],Time Zone[],Elevation[m]
2,8,Day of Simulation[],Month[],Day of Month[],DST Indicator[1=yes 0=no],Hour[],StartMinute[],EndMinute[],DayType
3,5,Cumulative Day of Simulation[],Month[],Day of Month[],DST Indicator[1=yes 0=no],DayType  ! When Daily Report Variables Requested
4,2,Cumulative Days of Simulation[],Month[]  ! When Monthly Report Variables Requested
5,1,Cumulative Days of Simulation[] ! When Run Period Report Variables Requested
6,1,Calendar Year of Simulation[] ! When Annual Report Variables Requested
7,1,Environment,Site Outdoor Air Drybulb Temperature [C] !TimeStep
8,1,ZONE ONE,Zone Windows Total Transmitted Solar Radiation Rate [W] !TimeStep
9,1,ZN001:WALL001,Surface Outside Face Sunlit Fraction [] !TimeStep
10,1,ZN001:WALL001,Surface Outside Face Incident Solar Radiation Rate per Area [W/m2] !TimeStep
11,1,ZN001:WALL001:WIN001,Surface Outside Face Sunlit Fraction [] !TimeStep
12,1,ZN001:WALL001:WIN001,Surface Outside Face Incident Solar Radiation Rate per Area [W/m2] !TimeStep
13,1,ZN001:WALL001:WIN001,Surface Window Transmitted Solar Radiation Rate [W] !TimeStep
14,1,ZN001:WALL001,Surface Inside Face Temperature [C] !TimeStep
15,1,ZN001:WALL001,Surface Outside Face Temperature [C] !TimeStep
16,1,ZN001:WALL001:WIN001,Surface Inside Face Temperature [C] !TimeStep
17,1,ZN001:WALL001:WIN001,Surface Outside Face Temperature [C] !TimeStep
18,1,ZONE ONE,Zone Mean Air Temperature [C] !TimeStep
End of Data Dictionary
1,RUN PERIOD 1,  41.98, -87.92,  -6.00, 201.00
2,1, 1, 1, 0, 1, 0.00,15.00,Tuesday
7,-4.324999999999999
8,0.0
9,0.0
10,0.0
11,0.0
12,0.0
13,0.0
14,2.65197588291819
15,-5.955662127564803
16,0.9018071430926398
17,-4.934540294513283
18,3.028180348455125
2,1, 1, 1, 0, 1,15.00,30.00,Tuesday
7,-6.949999999999999
8,0.0
9,0.0
10,0.0
11,0.0
12,0.0
13,0.0
14,2.4751909855014726
15,-8.423534782667535
16,0.2875586902695204
17,-7.0222195756671799
18,2.9406510495031155
2,1, 1, 1, 0, 1,30.00,45.00,Tuesday
7,-9.575
8,0.0
9,0.0
10,0.0
11,0.0
12,0.0
13,0.0
14,2.2786766574456887
15,-10.899623177537546
16,-0.32997433112223009
17,-9.11657874247851
18,2.820346780719603
2,1, 1, 1, 0, 1,45.00,60.00,Tuesday
7,-12.2
8,0.0
9,0.0
10,0.0
11,0.0
12,0.0
13,0.0
14,2.0663630707564466
15,-13.382287859232319
16,-0.961318528115612
17,-11.219002956074747
18,2.676696294056304
2,1, 1, 1, 0, 2, 0.00,15.00,Tuesday
7,-12.075
8,0.0
9,0.0
10,0.0
11,0.0
12,0.0
13,0.0
14,2.0079182452081207
15,-13.183762032176779
16,-1.024219857262608
17,-11.06904610271647
18,2.5468148152189786
2,1, 1, 1, 0, 2,15.00,30.00,Tuesday
7,-11.95
8,0.0
9,0.0
10,0.0
11,0.0
12,0.0
13,0.0
14,1.9350210798702806
15,-13.00650477003135
16,-1.0488358922424937
17,-10.92184770247195
18,2.448491782245062
2,1, 1, 1, 0, 2,30.00,45.00,Tuesday
7,-11.825
8,0.0
9,0.0
10,0.0
11,0.0
12,0.0
13,0.0
14,1.8791074310904704
15,-12.828057727742783
16,-1.06835313388558
17,-10.77427165364361
18,2.3771879648747205
2,1, 1, 1, 0, 2,45.00,60.00,Tuesday
7,-11.7
8,0.0
9,0.0
10,0.0
11,0.0
12,0.0
13,0.0
14,1.8345455876465276
15,-12.64967444691903
16,-1.0752437279846277
17,-10.624035057348977
18,2.322244074577496
2,1, 1, 1, 0, 3, 0.00,15.00,Tuesday
7,-11.549999999999999
8,0.0
9,0.0
10,0.0
11,0.0
12,0.0
13,0.0
14,1.7916991530478795
15,-12.52484571751671
16,-1.0739625885192937
17,-10.493157497375364
18,2.2746718748017908
2,1, 1, 1, 0, 3,15.00,30.00,Tuesday
7,-11.399999999999999
8,0.0
9,0.0
10,0.0
11,0.0
12,0.0
13,0.0
14,1.7522720527271232
15,-12.401436973426886
16,-1.0735182296392623
17,-10.353901871145809
18,2.229789414194299
2,1, 1, 1, 0, 3,30.00,45.00,Tuesday
7,-11.25
8,0.0
9,0.0
10,0.0
11,0.0
12,0.0
13,0.0
14,1.7138547609352005
15,-12.279618520550179
16,-1.0716119596257273
17,-10.213839073399527
18,2.186076681690692
2,1, 1, 1, 0, 3,45.00,60.00,Tuesday
7,-11.1
8,0.0
9,0.0
10,0.0
11,0.0
12,0.0
13,0.0
14,1.6759791682167722
15,-12.159450390427244
16,-1.069066413987116
17,-10.073956542988356
18,2.143248593081796
2,1, 1, 1, 0, 4, 0.00,15.00,Tuesday
7,-11.1
8,0.0
9,0.0
10,0.0
11,0.0
12,0.0
13,0.0
14,1.634493901336647
15,-12.129226098681097
16,-1.1145090228927757
17,-10.091422446234674
18,2.100443900164872
2,1, 1, 1, 0, 4,15.00,30.00,Tuesday
7,-11.1
8,0.0
9,0.0
10,0.0
11,0.0
12,0.0
13,0.0
14,1.5934128224934219
15,-12.100172043791705
16,-1.1545243006319197
17,-10.115958371564887
18,2.0573265316260547
2,1, 1, 1, 0, 4,30.00,45.00,Tuesday
7,-11.1
8,0.0
9,0.0
10,0.0
11,0.0
12,0.0
13,0.0
14,1.5521854616947946
15,-12.072735472647557
16,-1.1938130501889078
17,-10.14042370862569
18,2.0139805149128344
2,1, 1, 1, 0, 4,45.00,60.00,Tuesday
7,-11.1
8,0.0
9,0.0
10,0.0
11,0.0
12,0.0
13,0.0
14,1.5108956120923863
15,-12.046783011154347
16,-1.2329057447371384
17,-10.164174889163064
18,1.9705770853247245
2,1, 1, 1, 0, 5, 0.00,15.00,Tuesday
7,-10.975
8,0.0
9,0.0
10,0.0
11,0.0
12,0.0
13,0.0
14,1.4752899304388945
15,-11.924598543122857
16,-1.2369923390319287
17,-10.076011636017939
18,1.9282310040511368
2,1, 1, 1, 0, 5,15.00,30.00,Tuesday
7,-10.85
8,0.0
9,0.0
10,0.0
11,0.0
12,0.0
13,0.0
14,1.4398738474959046
15,-11.802505061877059
16,-1.242920912688362
17,-9.980013495485196
18,1.8874133850265487
2,1, 1, 1, 0, 5,30.00,45.00,Tuesday
7,-10.725
8,0.0
9,0.0
10,0.0
11,0.0
12,0.0
13,0.0
14,1.4054225217593209
15,-11.680390732804775
16,-1.248595134947152
17,-9.883180774211269
18,1.8479262979691529
2,1, 1, 1, 0, 5,45.00,60.00,Tuesday
7,-10.6
8,0.0
9,0.0
10,0.0
11,0.0
12,0.0
13,0.0
14,1.371786398198315
15,-11.558286256183662
16,-1.253516166156487
17,-9.786121165903524
18,1.8094162077135423
2,1, 1, 1, 0, 6, 0.00,15.00,Tuesday
7,-10.6
8,0.0
9,0.0
10,0.0
11,0.0
12,0.0
13,0.0
14,1.3309132276343119
15,-11.559117738459396
16,-1.2853182418856478
17,-9.788524542270011
18,1.7703991621627225
2,1, 1, 1, 0, 6,15.00,30.00,Tuesday
7,-10.6
8,0.0
9,0.0
10,0.0
11,0.0
12,0.0
13,0.0
14,1.2906577282602819
15,-11.559867524573848
16,-1.3188685965142782
17,-9.794384763648054
18,1.7300860466809367
2,1, 1, 1, 0, 6,30.00,45.00,Tuesday
7,-10.6
8,0.0
9,0.0
10,0.0
11,0.0
12,0.0
13,0.0
14,1.2498393452719588
15,-11.56066105101641
16,-1.3548301862308563
17,-9.798966759330313
18,1.688576875968233
2,1, 1, 1, 0, 6,45.00,60.00,Tuesday
7,-10.6
8,0.0
9,0.0
10,0.0
11,0.0
12,0.0
13,0.0
14,1.2086945049538445
15,-11.561457225244633
16,-1.3866105001300753
17,-9.807155223169275
18,1.6464994754451237
2,1, 1, 1, 0, 7, 0.00,15.00,Tuesday
7,-10.6
8,0.0
9,0.0
10,0.0
11,0.0
12,0.0
13,0.0
14,1.1696337304723877
15,-11.53652760080771
16,-1.4266444554557439
17,-9.825488403000918
18,1.6044840425128367
2,1, 1, 1, 0, 7,15.00,30.00,Tuesday
7,-10.6
8,0.0
9,0.0
10,0.0
11,0.0
12,0.0
13,0.0
14,1.1304146115176579
15,-11.51289295423366
16,-1.4631562099726808
17,-9.844838302981885
18,1.5629339484655616
2,1, 1, 1, 0, 7,30.00,45.00,Tuesday
7,-10.6
8,0.0
9,0.0
10,0.0
11,0.0
12,0.0
13,0.0
14,1.0914508503816814
15,-11.490455747810217
16,-1.499251804043297
17,-9.863806601696468
18,1.5218714787198454
2,1, 1, 1, 0, 7,45.00,60.00,Tuesday
7,-10.6
8,0.0
9,0.0
10,0.0
11,0.0
12,0.0
13,0.0
14,1.0527742894378139
15,-11.469145532762923
16,-1.5349261869338876
17,-9.882137267066355
18,1.4811878945216073
2,1, 1, 1, 0, 8, 0.00,15.00,Tuesday
7,-10.45
8,0.0
9,0.0
10,0.0
11,0.0
12,0.0
13,0.0
14,1.013260009407466
15,-11.421065371104192
16,-1.5502406322526099
17,-9.8368539946714
18,1.44047063456005
2,1, 1, 1, 0, 8,15.00,30.00,Tuesday
7,-10.3
8,96.42661238977162
9,1.0
10,22.819555959623899
11,1.0
12,22.819555959623899
13,96.42661238977162
14,1.0832197352380147
15,-9.748059635797168
16,-1.1724767292283787
17,-9.46111655525101
18,1.4154326390775019
2,1, 1, 1, 0, 8,30.00,45.00,Tuesday
7,-10.15
8,474.60541633128278
9,1.0
10,109.75755355442667
11,1.0
12,109.75755355442667
13,474.60541633128278
14,1.4509177485538632
15,-3.3862004059920798
16,0.3896922609712874
17,-8.137632965040269
18,1.4491559273986406
2,1, 1, 1, 0, 8,45.00,60.00,Tuesday
7,-10.0
8,866.244564454756
9,1.0
10,195.8764694434918
11,1.0
12,195.8764694434918
13,866.244564454756
14,1.9462587656895685
15,3.1394504961678466
16,2.1216361292795229
17,-6.813110827271316
18,1.5457127300175775
2,1, 1, 1, 0, 9, 0.00,15.00,Tuesday
7,-9.725
8,1259.6795884260615
9,1.0
10,278.97248314719988
11,1.0
12,278.97248314719988
13,1259.6795884260615
14,2.272326495780727
15,8.277705653956794
16,3.6732714468109295
17,-5.667240459765708
18,1.6922412360227175
2,1, 1, 1, 0, 9,15.00,30.00,Tuesday
7,-9.45
8,1677.483085590409
9,1.0
10,364.91995730569456
11,1.0
12,364.91995730569456
13,1677.483085590409
14,2.6663856206200484
15,13.364403291023681
16,5.201941449265632
17,-4.533830530730825
18,1.8804239208758676
2,1, 1, 1, 0, 9,30.00,45.00,Tuesday
7,-9.175
8,1957.8502286579276
9,1.0
10,420.35879993239237
11,1.0
12,420.35879993239237
13,1957.8502286579276
14,2.9340691231156099
15,16.122544465504569
16,6.211688094108922
17,-3.8419255356495798
18,2.0904898598903749
2,1, 1, 1, 0, 9,45.00,60.00,Tuesday
7,-8.9
8,2249.9750529425884
9,1.0
10,478.00138373643099
11,1.0
12,478.00138373643099
13,2249.9750529425884
14,3.250397423048596
15,19.11807928801001
16,7.2232567352567689
17,-3.123948323666582
18,2.3126904366486298
2,1, 1, 1, 0,10, 0.00,15.00,Tuesday
7,-8.350000000000002
8,2549.2387155739336
9,1.0
10,536.9185644770597
11,1.0
12,536.9185644770597
13,2549.2387155739336
14,3.508641210936117
15,20.237626920584149
16,8.259711370161768
17,-2.3847705791853857
18,2.549053790079221
2,1, 1, 1, 0,10,15.00,30.00,Tuesday
7,-7.800000000000001
8,2859.4267895585364
9,1.0
10,598.0969199229219
11,1.0
12,598.0969199229219
13,2859.4267895585364
14,3.7919582984444859
15,21.492131727608208
16,9.315144465205549
17,-1.649173861355223
18,2.8051190644231456
2,1, 1, 1, 0,10,30.00,45.00,Tuesday
7,-7.25
8,3065.6302613999998
9,1.0
10,637.6133352894237
11,1.0
12,637.6133352894237
13,3065.6302613999998
14,4.00680571323033
15,21.553256219354777
16,10.057594475752126
17,-1.147530919171004
18,3.066401074929376
2,1, 1, 1, 0,10,45.00,60.00,Tuesday
7,-6.7
8,3268.901522831109
9,1.0
10,676.6412284283772
11,1.0
12,676.6412284283772
13,3268.901522831109
14,4.240698138880095
15,21.71455801869385
16,10.775658692910497
17,-0.6496725115503068
18,3.322100584665556
2,1, 1, 1, 0,11, 0.00,15.00,Tuesday
7,-6.275
8,3468.4787947987299
9,1.0
10,715.0112779846514
11,1.0
12,715.0112779846514
13,3468.4787947987299
14,4.551139242527847
15,23.81207137108071
16,11.534665344229893
17,0.09244830355999057
18,3.5749681060541009
2,1, 1, 1, 0,11,15.00,30.00,Tuesday
7,-5.85
8,3663.269993409403
9,1.0
10,752.5077794605232
11,1.0
12,752.5077794605232
13,3663.269993409403
14,4.84849455011322
15,25.74705164261998
16,12.282409450707633
17,0.8127160911592455
18,3.829662312816727
2,1, 1, 1, 0,11,30.00,45.00,Tuesday
7,-5.425
8,3608.8649219642427
9,1.0
10,742.5988714321785
11,1.0
12,742.5988714321785
13,3608.8649219642427
14,5.018387421071322
15,25.598891620607316
16,12.391533362224664
17,1.0909269434820886
18,4.069942707220524
2,1, 1, 1, 0,11,45.00,60.00,Tuesday
7,-5.0
8,3529.244255790345
9,1.0
10,727.8169025450712
11,1.0
12,727.8169025450712
13,3529.244255790345
14,5.183941571972123
15,25.369549812339316
16,12.410401106321104
17,1.3339251952778569
18,4.284234724880703
2,1, 1, 1, 0,12, 0.00,15.00,Tuesday
7,-4.575
8,3391.5177444928156
9,1.0
10,700.3759009170325
11,1.0
12,700.3759009170325
13,3391.5177444928156
14,5.29670724147689
15,24.62682907344539
16,12.259501283153725
17,1.5054680720934926
18,4.466685547649581
2,1, 1, 1, 0,12,15.00,30.00,Tuesday
7,-4.15
8,3287.4311455859817
9,1.0
10,681.6705029034473
11,1.0
12,681.6705029034473
13,3287.4311455859817
14,5.429374327099044
15,24.296255808242316
16,12.210050839104042
17,1.7559982930117713
18,4.624757860995745
2,1, 1, 1, 0,12,30.00,45.00,Tuesday
7,-3.7249999999999998
8,2882.9179691833408
9,1.0
10,602.01865277251
11,1.0
12,602.01865277251
13,2882.9179691833408
14,5.343970269169592
15,21.267867944801169
16,11.330947864741575
17,1.4670982902731567
18,4.7390969669149689
2,1, 1, 1, 0,12,45.00,60.00,Tuesday
7,-3.3
8,2352.6218892255585
9,1.0
10,493.55004396206007
11,1.0
12,493.55004396206007
13,2352.6218892255585
14,5.1589566365277419
15,17.08924678071849
16,9.963117756882014
17,0.8956984511235078
18,4.78928509051682
2,1, 1, 1, 0,13, 0.00,15.00,Tuesday
7,-3.0249999999999996
8,1937.3269634124322
9,1.0
10,412.335026418112
11,1.0
12,412.335026418112
13,1937.3269634124322
14,5.0267528512056869
15,14.244568282861682
16,8.896348802534476
17,0.5056513457969913
18,4.789689773802205
2,1, 1, 1, 0,13,15.00,30.00,Tuesday
7,-2.75
8,1414.5467009849916
9,1.0
10,305.94037763660148
11,1.0
12,305.94037763660148
13,1414.5467009849916
14,4.753137245346379
15,10.07093764316774
16,7.414971776864036
17,-0.14360986676854282
18,4.747071218717081
2,1, 1, 1, 0,13,30.00,45.00,Tuesday
7,-2.475
8,1289.2658050704163
9,1.0
10,281.0763483922329
11,1.0
12,281.0763483922329
13,1289.2658050704163
14,4.7348564339405769
15,9.55606949416051
16,7.076408619329527
17,-0.051701971495276669
18,4.69189246409681
2,1, 1, 1, 0,13,45.00,60.00,Tuesday
7,-2.2
8,1166.5876548842649
9,1.0
10,256.7721209415886
11,1.0
12,256.7721209415886
13,1166.5876548842649
14,4.703897700329794
15,8.950828805944763
16,6.799545208883899
17,0.06426924787166399
18,4.645517826333928
2,1, 1, 1, 0,14, 0.00,15.00,Tuesday
7,-1.9250000000000003
8,951.6580013218959
9,1.0
10,210.73276284570657
11,1.0
12,210.73276284570657
13,951.6580013218959
14,4.585645365479729
15,7.402256185003547
16,6.159990509397517
17,-0.0698457270233348
18,4.604433515224352
2,1, 1, 1, 0,14,15.00,30.00,Tuesday
7,-1.6500000000000002
8,843.024558893695
9,1.0
10,189.38488290342594
11,1.0
12,189.38488290342594
13,843.024558893695
14,4.561068959371381
15,6.996152361854783
16,5.876415467552306
17,0.02311778191119629
18,4.56813110555692
2,1, 1, 1, 0,14,30.00,45.00,Tuesday
7,-1.375
8,804.6632183511958
9,1.0
10,179.3940297802914
11,1.0
12,179.3940297802914
13,804.6632183511958
14,4.561462571805652
15,7.117945663231358
16,5.798864505785787
17,0.23642046641589332
18,4.538657272019442
2,1, 1, 1, 0,14,45.00,60.00,Tuesday
7,-1.1
8,765.5588520005708
9,1.0
10,169.43349014176136
11,1.0
12,169.43349014176136
13,765.5588520005708
14,4.559569535863339
15,7.215742958405402
16,5.7159980862496699
17,0.4474850706754978
18,4.516018554793367
2,1, 1, 1, 0,15, 0.00,15.00,Tuesday
7,-1.1
8,805.2150553488002
9,1.0
10,178.15692317953907
11,1.0
12,178.15692317953907
13,805.2150553488002
14,4.612505468630581
15,8.031299623146584
16,5.867287496716926
17,0.590384258280892
18,4.503087140200462
2,1, 1, 1, 0,15,15.00,30.00,Tuesday
7,-1.1
8,756.2433790740292
9,1.0
10,166.40516310952945
11,1.0
12,166.40516310952945
13,756.2433790740292
14,4.572156002422454
15,7.667768474156005
16,5.694383040902721
17,0.5106616711527749
18,4.494221100446389
2,1, 1, 1, 0,15,30.00,45.00,Tuesday
7,-1.1
8,636.4747232456177
9,1.0
10,140.8967369711617
11,1.0
12,140.8967369711617
13,636.4747232456177
14,4.475679708639514
15,6.460195007417638
16,5.258903269320172
17,0.24600363623642353
18,4.477631851270179
2,1, 1, 1, 0,15,45.00,60.00,Tuesday
7,-1.1
8,522.7235097510675
9,1.0
10,116.57355796743004
11,1.0
12,116.57355796743004
13,522.7235097510675
14,4.366283842694388
15,5.242996398736624
16,4.814273560858851
17,-0.03270399707321303
18,4.4460004539056119
2,1, 1, 1, 0,16, 0.00,15.00,Tuesday
7,-1.1
8,414.0081279208023
9,1.0
10,93.14939272689483
11,1.0
12,93.14939272689483
13,414.0081279208023
14,4.280675522806179
15,4.195655024724488
16,4.375888924105993
17,-0.24803725042096404
18,4.399916887230366
2,1, 1, 1, 0,16,15.00,30.00,Tuesday
7,-1.1
8,256.47389356800849
9,1.0
10,57.94047897402063
11,1.0
12,57.94047897402063
13,256.47389356800849
14,4.110058654028523
15,2.0663004340778965
16,3.720651910962374
17,-0.6481587145181607
18,4.334626747939426
2,1, 1, 1, 0,16,30.00,45.00,Tuesday
7,-1.1
8,198.41305419285389
9,1.0
10,45.38251793443488
11,1.0
12,45.38251793443488
13,198.41305419285389
14,4.046956842075414
15,1.4509311947801645
16,3.4620221793973657
17,-0.7552202392359959
18,4.258393340138079
2,1, 1, 1, 0,16,45.00,60.00,Tuesday
7,-1.1
8,138.2427639570494
9,1.0
10,32.02625108222755
11,1.0
12,32.02625108222755
13,138.2427639570494
14,3.9499830634108878
15,0.5816130158225704
16,3.206751764165915
17,-0.8797011247909268
18,4.178287572871744
2,1, 1, 1, 0,17, 0.00,15.00,Tuesday
7,-1.1
8,75.7300491575989
9,1.0
10,17.762198626050539
11,1.0
12,17.762198626050539
13,75.7300491575989
14,3.824257311082577
15,-0.6779642487540616
16,2.889997284100218
17,-1.133880620345849
18,4.092106717577449
2,1, 1, 1, 0,17,15.00,30.00,Tuesday
7,-1.1
8,0.0
9,0.0
10,0.0
11,0.0
12,0.0
13,0.0
14,3.6493144750502117
15,-2.51892555241871
16,2.494804349444621
17,-1.4789922686113642
18,3.9931770922824389
2,1, 1, 1, 0,17,30.00,45.00,Tuesday
7,-1.1
8,0.0
9,0.0
10,0.0
11,0.0
12,0.0
13,0.0
14,3.5993848505627459
15,-2.658402716677204
16,2.404453882830012
17,-1.5242771139314187
18,3.8967253625300044
2,1, 1, 1, 0,17,45.00,60.00,Tuesday
7,-1.1
8,0.0
9,0.0
10,0.0
11,0.0
12,0.0
13,0.0
14,3.5352568592880688
15,-2.8559518332541629
16,2.3473962659899145
17,-1.5734975380988204
18,3.815834299364691
2,1, 1, 1, 0,18, 0.00,15.00,Tuesday
7,-1.25
8,0.0
9,0.0
10,0.0
11,0.0
12,0.0
13,0.0
14,3.4828513248734218
15,-3.0029326928653488
16,2.263339808316573
17,-1.7149744638496714
18,3.7519849706719037
2,1, 1, 1, 0,18,15.00,30.00,Tuesday
7,-1.4
8,0.0
9,0.0
10,0.0
11,0.0
12,0.0
13,0.0
14,3.4355399006186895
15,-3.155298066935037
16,2.193717975539073
17,-1.8444632120475717
18,3.7006965937353097
2,1, 1, 1, 0,18,30.00,45.00,Tuesday
7,-1.5499999999999999
8,0.0
9,0.0
10,0.0
11,0.0
12,0.0
13,0.0
14,3.3926108883182808
15,-3.307084694726133
16,2.1282078047566985
17,-1.97353939140811
18,3.6568719778797247
2,1, 1, 1, 0,18,45.00,60.00,Tuesday
7,-1.7
8,0.0
9,0.0
10,0.0
11,0.0
12,0.0
13,0.0
14,3.3519828052830689
15,-3.4590414635788955
16,2.0658331962965805
17,-2.1016536244034116
18,3.6170192326668038
2,1, 1, 1, 0,19, 0.00,15.00,Tuesday
7,-1.825
8,0.0
9,0.0
10,0.0
11,0.0
12,0.0
13,0.0
14,3.338362189522149
15,-3.3016262055435168
16,2.026358667816396
17,-2.152909788071156
18,3.5829919467378
2,1, 1, 1, 0,19,15.00,30.00,Tuesday
7,-1.9500000000000002
8,0.0
9,0.0
10,0.0
11,0.0
12,0.0
13,0.0
14,3.325043930177457
15,-3.226738272553838
16,1.9897199372377373
17,-2.2240741080643149
18,3.556510849056849
2,1, 1, 1, 0,19,30.00,45.00,Tuesday
7,-2.075
8,0.0
9,0.0
10,0.0
11,0.0
12,0.0
13,0.0
14,3.3048107061392697
15,-3.2983652029269474
16,1.9511273712275852
17,-2.318554641759306
18,3.5357462778287225
2,1, 1, 1, 0,19,45.00,60.00,Tuesday
7,-2.2
8,0.0
9,0.0
10,0.0
11,0.0
12,0.0
13,0.0
14,3.288820757587459
15,-3.2689475040575868
16,1.9163576425696647
17,-2.401938926440266
18,3.5176110888482694
2,1, 1, 1, 0,20, 0.00,15.00,Tuesday
7,-1.9250000000000003
8,0.0
9,0.0
10,0.0
11,0.0
12,0.0
13,0.0
14,3.289254402008919
15,-2.9659846873168225
16,1.9692430304302775
17,-2.1797490698770618
18,3.502291592422617
2,1, 1, 1, 0,20,15.00,30.00,Tuesday
7,-1.6500000000000002
8,0.0
9,0.0
10,0.0
11,0.0
12,0.0
13,0.0
14,3.289820257209076
15,-2.666210520001102
16,2.02268661852861
17,-1.947458271022981
18,3.4901553437802348
2,1, 1, 1, 0,20,30.00,45.00,Tuesday
7,-1.375
8,0.0
9,0.0
10,0.0
11,0.0
12,0.0
13,0.0
14,3.29284978791916
15,-2.367783165987113
16,2.077619287139669
17,-1.7132570067560665
18,3.4809028711464755
2,1, 1, 1, 0,20,45.00,60.00,Tuesday
7,-1.1
8,0.0
9,0.0
10,0.0
11,0.0
12,0.0
13,0.0
14,3.2965141005867468
15,-2.0707275492268577
16,2.134716086088929
17,-1.4772920486518615
18,3.473849035275184
2,1, 1, 1, 0,21, 0.00,15.00,Tuesday
7,-1.25
8,0.0
9,0.0
10,0.0
11,0.0
12,0.0
13,0.0
14,3.2553038348115415
15,-2.359168087217102
16,2.0834217699789976
17,-1.614140314687745
18,3.4622612585400778
2,1, 1, 1, 0,21,15.00,30.00,Tuesday
7,-1.4
8,0.0
9,0.0
10,0.0
11,0.0
12,0.0
13,0.0
14,3.2157477818666004
15,-2.5795476494101399
16,2.0285045691022107
17,-1.7454687008327597
18,3.4413765496395918
2,1, 1, 1, 0,21,30.00,45.00,Tuesday
7,-1.5499999999999999
8,0.0
9,0.0
10,0.0
11,0.0
12,0.0
13,0.0
14,3.1621136973391499
15,-2.93348648244798
16,1.9649098759355184
17,-1.8967088613338775
18,3.4099595645683435
2,1, 1, 1, 0,21,45.00,60.00,Tuesday
7,-1.7
8,0.0
9,0.0
10,0.0
11,0.0
12,0.0
13,0.0
14,3.103081454773137
15,-3.396350950274916
16,1.8881206415386487
17,-2.072157657532216
18,3.3698851665775866
2,1, 1, 1, 0,22, 0.00,15.00,Tuesday
7,-1.5499999999999999
8,0.0
9,0.0
10,0.0
11,0.0
12,0.0
13,0.0
14,3.1165869439695426
15,-2.89584500363829
16,1.9053561079942938
17,-1.9129178981572182
18,3.3350982046412938
2,1, 1, 1, 0,22,15.00,30.00,Tuesday
7,-1.4
8,0.0
9,0.0
10,0.0
11,0.0
12,0.0
13,0.0
14,3.121197991320451
15,-2.556882112744974
16,1.9390178395102567
17,-1.7634418186897847
18,3.313372338960374
2,1, 1, 1, 0,22,30.00,45.00,Tuesday
7,-1.25
8,0.0
9,0.0
10,0.0
11,0.0
12,0.0
13,0.0
14,3.123624186975563
15,-2.3328512306681699
16,1.9690160536866302
17,-1.6311868951957536
18,3.302720269171115
2,1, 1, 1, 0,22,45.00,60.00,Tuesday
7,-1.1
8,0.0
9,0.0
10,0.0
11,0.0
12,0.0
13,0.0
14,3.129942891504139
15,-2.043226742106667
16,2.0074862366934669
17,-1.481046881034672
18,3.2980559185835727
2,1, 1, 1, 0,23, 0.00,15.00,Tuesday
7,-1.25
8,0.0
9,0.0
10,0.0
11,0.0
12,0.0
13,0.0
14,3.088960602101352
15,-2.3468198395361909
16,1.9198918816167634
17,-1.753281264315774
18,3.2890214600784297
2,1, 1, 1, 0,23,15.00,30.00,Tuesday
7,-1.4
8,0.0
9,0.0
10,0.0
11,0.0
12,0.0
13,0.0
14,3.050687667119476
15,-2.651346532788994
16,1.8221117420420683
17,-2.043685856404011
18,3.2701051180611779
2,1, 1, 1, 0,23,30.00,45.00,Tuesday
7,-1.5499999999999999
8,0.0
9,0.0
10,0.0
11,0.0
12,0.0
13,0.0
14,3.0082709757420007
15,-2.9565139292374975
16,1.7233557383618746
17,-2.3342238835156197
18,3.24196623297114
2,1, 1, 1, 0,23,45.00,60.00,Tuesday
7,-1.7
8,0.0
9,0.0
10,0.0
11,0.0
12,0.0
13,0.0
14,2.9620809667213265
15,-3.262027817480191
16,1.6211749648019236
17,-2.625278854637145
18,3.20734168628254
2,1, 1, 1, 0,24, 0.00,15.00,Tuesday
7,-1.7
8,0.0
9,0.0
10,0.0
11,0.0
12,0.0
13,0.0
14,2.9336257142573096
15,-3.315832051674601
16,1.5792567540775622
17,-2.6853834682430035
18,3.17177571217522
2,1, 1, 1, 0,24,15.00,30.00,Tuesday
7,-1.7
8,0.0
9,0.0
10,0.0
11,0.0
12,0.0
13,0.0
14,2.902076570082625
15,-3.3703937328603676
16,1.5414077954966957
17,-2.7445341734530759
18,3.1383581687499926
2,1, 1, 1, 0,24,30.00,45.00,Tuesday
7,-1.7
8,0.0
9,0.0
10,0.0
11,0.0
12,0.0
13,0.0
14,2.871367187584569
15,-3.4248117780250757
16,1.5030144589798056
17,-2.8038614535489048
18,3.10724744291692
2,1, 1, 1, 0,24,45.00,60.00,Tuesday
7,-1.7
8,0.0
9,0.0
10,0.0
11,0.0
12,0.0
13,0.0
14,2.8413399860183254
15,-3.4792309560545875
16,1.4653670733226819
17,-2.8629489667774807
18,3.0775649287430486
End of Data
 Number of Records Written=        1152
