Program Version,EnergyPlus, Version 9.5.0-de239b2e5f, YMD=2022.11.08 09:47
1,5,Environment Title[],Latitude[deg],Longitude[deg],Time Zone[],Elevation[m]
2,8,Day of Simulation[],Month[],Day of Month[],DST Indicator[1=yes 0=no],Hour[],StartMinute[],EndMinute[],DayType
3,5,Cumulative Day of Simulation[],Month[],Day of Month[],DST Indicator[1=yes 0=no],DayType  ! When Daily Report Variables Requested
4,2,Cumulative Days of Simulation[],Month[]  ! When Monthly Report Variables Requested
5,1,Cumulative Days of Simulation[] ! When Run Period Report Variables Requested
6,1,Calendar Year of Simulation[] ! When Annual Report Variables Requested
7,1,Environment,Site Outdoor Air Drybulb Temperature [C] !TimeStep
8,1,ZONE ONE,Zone Windows Total Transmitted Solar Radiation Rate [W] !TimeStep
9,1,ZN001:WALL001,Surface Outside Face Sunlit Fraction [] !TimeStep
10,1,ZN001:WALL001,Surface Outside Face Incident Solar Radiation Rate per Area [W/m2] !TimeStep
11,1,ZN001:WALL001:WIN001,Surface Outside Face Sunlit Fraction [] !TimeStep
12,1,ZN001:WALL001:WIN001,Surface Outside Face Incident Solar Radiation Rate per Area [W/m2] !TimeStep
13,1,ZN001:WALL001:WIN001,Surface Window Transmitted Solar Radiation Rate [W] !TimeStep
14,1,ZN001:WALL001,Surface Inside Face Temperature [C] !TimeStep
15,1,ZN001:WALL001,Surface Outside Face Temperature [C] !TimeStep
16,1,ZN001:WALL001:WIN001,Surface Inside Face Temperature [C] !TimeStep
17,1,ZN001:WALL001:WIN001,Surface Outside Face Temperature [C] !TimeStep
18,1,ZONE ONE,Zone Mean Air Temperature [C] !TimeStep
End of Data Dictionary
1,RUN PERIOD 1,  41.98, -87.92,  -6.00, 201.00
2,1, 1, 1, 0, 1, 0.00,15.00,Tuesday
7,-4.324999999999999
8,0.0
9,0.0
10,0.0
11,0.0
12,0.0
13,0.0
14,5.361716343918784
15,-5.906268800418546
16,3.132250412822657
17,-4.475611205837595
18,5.8079858289312249
2,1, 1, 1, 0, 1,15.00,30.00,Tuesday
7,-6.949999999999999
8,0.0
9,0.0
10,0.0
11,0.0
12,0.0
13,0.0
14,5.180537192399039
15,-8.37379246276308
16,2.525766338157837
17,-6.563226136112803
18,5.711673047846388
2,1, 1, 1, 0, 1,30.00,45.00,Tuesday
7,-9.575
8,0.0
9,0.0
10,0.0
11,0.0
12,0.0
13,0.0
14,4.9794468670769069
15,-10.849311387454174
16,1.913678812840999
17,-8.657268559485602
18,5.583394973243993
2,1, 1, 1, 0, 1,45.00,60.00,Tuesday
7,-12.2
8,0.0
9,0.0
10,0.0
11,0.0
12,0.0
13,0.0
14,4.762495913400031
15,-13.331444230540934
16,1.2869767074075754
17,-10.759047320749119
18,5.432821412129979
2,1, 1, 1, 0, 2, 0.00,15.00,Tuesday
7,-12.075
8,0.0
9,0.0
10,0.0
11,0.0
12,0.0
13,0.0
14,4.695561579627713
15,-13.132514929675516
16,1.2187408922525834
17,-10.60256850435951
18,5.297020288173502
2,1, 1, 1, 0, 2,15.00,30.00,Tuesday
7,-11.95
8,0.0
9,0.0
10,0.0
11,0.0
12,0.0
13,0.0
14,4.614926576656179
15,-12.955419607400192
16,1.186192599791866
17,-10.457422438471895
18,5.193095922637746
2,1, 1, 1, 0, 2,30.00,45.00,Tuesday
7,-11.825
8,0.0
9,0.0
10,0.0
11,0.0
12,0.0
13,0.0
14,4.551444043181998
15,-12.777158678428544
16,1.1592024642760635
17,-10.311877811838486
18,5.1157782977329548
2,1, 1, 1, 0, 2,45.00,60.00,Tuesday
7,-11.7
8,0.0
9,0.0
10,0.0
11,0.0
12,0.0
13,0.0
14,4.499176767718389
15,-12.59897478466562
16,1.144895363854971
17,-10.163685658332384
18,5.054101079398845
2,1, 1, 1, 0, 3, 0.00,15.00,Tuesday
7,-11.549999999999999
8,0.0
9,0.0
10,0.0
11,0.0
12,0.0
13,0.0
14,4.448624548158492
15,-12.472933745641076
16,1.1408677916207353
17,-10.02765588819392
18,4.999173601176491
2,1, 1, 1, 0, 3,15.00,30.00,Tuesday
7,-11.399999999999999
8,0.0
9,0.0
10,0.0
11,0.0
12,0.0
13,0.0
14,4.4012176823784909
15,-12.348261520757847
16,1.1318406991520079
17,-9.872483187562296
18,4.946477644835931
2,1, 1, 1, 0, 3,30.00,45.00,Tuesday
7,-11.25
8,0.0
9,0.0
10,0.0
11,0.0
12,0.0
13,0.0
14,4.354775309057632
15,-12.225118558929797
16,1.1313768811560295
17,-9.735458192992838
18,4.894787599295762
2,1, 1, 1, 0, 3,45.00,60.00,Tuesday
7,-11.1
8,0.0
9,0.0
10,0.0
11,0.0
12,0.0
13,0.0
14,4.308742846807578
15,-12.103555818678414
16,1.124709553429284
17,-9.580720254345124
18,4.84387288749466
2,1, 1, 1, 0, 4, 0.00,15.00,Tuesday
7,-11.1
8,0.0
9,0.0
10,0.0
11,0.0
12,0.0
13,0.0
14,4.25905896549811
15,-12.075088265848409
16,1.0732725680187514
17,-9.61567797672069
18,4.7928995163769489
2,1, 1, 1, 0, 4,15.00,30.00,Tuesday
7,-11.1
8,0.0
9,0.0
10,0.0
11,0.0
12,0.0
13,0.0
14,4.209753112166949
15,-12.047716940240417
16,1.02486300571627
17,-9.649859995440409
18,4.7415304119745589
2,1, 1, 1, 0, 4,30.00,45.00,Tuesday
7,-11.1
8,0.0
9,0.0
10,0.0
11,0.0
12,0.0
13,0.0
14,4.160279625503145
15,-12.02188143961011
16,0.9768199799761987
17,-9.6831363158106
18,4.689870107361707
2,1, 1, 1, 0, 4,45.00,60.00,Tuesday
7,-11.1
8,0.0
9,0.0
10,0.0
11,0.0
12,0.0
13,0.0
14,4.110736762599007
15,-11.997450924553517
16,0.9289686827382866
17,-9.715427143355953
18,4.638122678480639
2,1, 1, 1, 0, 5, 0.00,15.00,Tuesday
7,-10.975
8,0.0
9,0.0
10,0.0
11,0.0
12,0.0
13,0.0
14,4.066827667832964
15,-11.875465702102579
16,0.9175578609307422
17,-9.628885761927734
18,4.587480633634053
2,1, 1, 1, 0, 5,15.00,30.00,Tuesday
7,-10.85
8,0.0
9,0.0
10,0.0
11,0.0
12,0.0
13,0.0
14,4.023129754949305
15,-11.75355389564095
16,0.9040571773701913
17,-9.534344883069025
18,4.538428041388896
2,1, 1, 1, 0, 5,30.00,45.00,Tuesday
7,-10.725
8,0.0
9,0.0
10,0.0
11,0.0
12,0.0
13,0.0
14,3.980449210356785
15,-11.631619799878694
16,0.8908349065521861
17,-9.438958997221562
18,4.490742678628652
2,1, 1, 1, 0, 5,45.00,60.00,Tuesday
7,-10.6
8,0.0
9,0.0
10,0.0
11,0.0
12,0.0
13,0.0
14,3.9386180355549404
15,-11.509695246287201
16,0.8784066095115577
17,-9.343338540384025
18,4.444050924545488
2,1, 1, 1, 0, 6, 0.00,15.00,Tuesday
7,-10.6
8,0.0
9,0.0
10,0.0
11,0.0
12,0.0
13,0.0
14,3.889762301354913
15,-11.510655979809837
16,0.8369297556577067
17,-9.34429782785702
18,4.396754958343257
2,1, 1, 1, 0, 6,15.00,30.00,Tuesday
7,-10.6
8,0.0
9,0.0
10,0.0
11,0.0
12,0.0
13,0.0
14,3.8415380747397256
15,-11.511558709099465
16,0.7964773095501414
17,-9.351956505982344
18,4.348141674598375
2,1, 1, 1, 0, 6,30.00,45.00,Tuesday
7,-10.6
8,0.0
9,0.0
10,0.0
11,0.0
12,0.0
13,0.0
14,3.792777343731405
15,-11.512503614581789
16,0.7562094798777821
17,-9.36020760922662
18,4.298486049171388
2,1, 1, 1, 0, 6,45.00,60.00,Tuesday
7,-10.6
8,0.0
9,0.0
10,0.0
11,0.0
12,0.0
13,0.0
14,3.743700787089063
15,-11.513446690124387
16,0.7155779309873083
17,-9.368607553191282
18,4.248300560948899
2,1, 1, 1, 0, 7, 0.00,15.00,Tuesday
7,-10.6
8,0.0
9,0.0
10,0.0
11,0.0
12,0.0
13,0.0
14,3.6966289279405388
15,-11.489925695124312
16,0.668904737050525
17,-9.395926265399112
18,4.198259507376436
2,1, 1, 1, 0, 7,15.00,30.00,Tuesday
7,-10.6
8,0.0
9,0.0
10,0.0
11,0.0
12,0.0
13,0.0
14,3.6494322710338147
15,-11.467624202409029
16,0.6240499124809844
17,-9.423397229610032
18,4.148713080677665
2,1, 1, 1, 0, 7,30.00,45.00,Tuesday
7,-10.6
8,0.0
9,0.0
10,0.0
11,0.0
12,0.0
13,0.0
14,3.602524874649854
15,-11.446456767427739
16,0.5796174753749028
17,-9.450133206305054
18,4.099644915348874
2,1, 1, 1, 0, 7,45.00,60.00,Tuesday
7,-10.6
8,0.0
9,0.0
10,0.0
11,0.0
12,0.0
13,0.0
14,3.555915002201319
15,-11.426356202813424
16,0.5356662352082253
17,-9.476002893748273
18,4.050941059033788
2,1, 1, 1, 0, 8, 0.00,15.00,Tuesday
7,-10.45
8,0.0
9,0.0
10,0.0
11,0.0
12,0.0
13,0.0
14,3.5086873381771177
15,-11.37733823674358
16,0.5155570452718052
17,-9.425788596025882
18,4.002262877896509
2,1, 1, 1, 0, 8,15.00,30.00,Tuesday
7,-10.3
8,148.01653406384325
9,1.0
10,22.819555959623899
11,1.0
12,22.819555959623899
13,148.01653406384325
14,3.5800753755225944
15,-9.703822914595684
16,0.8243106338600228
17,-9.092555336935107
18,3.9713048636495484
2,1, 1, 1, 0, 8,30.00,45.00,Tuesday
7,-10.15
8,726.7626658810535
9,1.0
10,109.75755355442667
11,1.0
12,109.75755355442667
13,726.7626658810535
14,3.9747719256697398
15,-3.334780407422828
16,2.134449620079863
17,-7.949634044978666
18,4.007323461196818
2,1, 1, 1, 0, 8,45.00,60.00,Tuesday
7,-10.0
8,1321.5398876203654
9,1.0
10,195.8764694434918
11,1.0
12,195.8764694434918
13,1321.5398876203654
14,4.478962403755071
15,3.1514924409368305
16,3.587987188862371
17,-6.793758312724549
18,4.117278469954925
2,1, 1, 1, 0, 9, 0.00,15.00,Tuesday
7,-9.725
8,1914.2684677032626
9,1.0
10,278.97248314719988
11,1.0
12,278.97248314719988
13,1914.2684677032626
14,4.888472125058193
15,8.325972401671523
16,5.085309910757758
17,-5.759698527546448
18,4.2795951031822538
2,1, 1, 1, 0, 9,15.00,30.00,Tuesday
7,-9.45
8,2539.072313923231
9,1.0
10,364.91995730569456
11,1.0
12,364.91995730569456
13,2539.072313923231
14,5.320435118764299
15,13.404391464639089
16,6.527387762339458
17,-4.720883436361646
18,4.48600244416301
2,1, 1, 1, 0, 9,30.00,45.00,Tuesday
7,-9.175
8,2952.440164549716
9,1.0
10,420.35879993239237
11,1.0
12,420.35879993239237
13,2952.440164549716
14,5.624712744796074
15,16.16209380519548
16,7.498250302163967
17,-4.0789607328694619
18,4.71682952997196
2,1, 1, 1, 0, 9,45.00,60.00,Tuesday
7,-8.9
8,3381.5497710085135
9,1.0
10,478.00138373643099
11,1.0
12,478.00138373643099
13,3381.5497710085135
14,5.981703387767892
15,19.156871533880964
16,8.46414917408515
17,-3.41514782886361
18,4.961663494767048
2,1, 1, 1, 0,10, 0.00,15.00,Tuesday
7,-8.350000000000002
8,3819.72525310092
9,1.0
10,536.9185644770597
11,1.0
12,536.9185644770597
13,3819.72525310092
14,6.284699574388557
15,20.27372111632106
16,9.459369890861183
17,-2.7131016113953025
18,5.2205191075301109
2,1, 1, 1, 0,10,15.00,30.00,Tuesday
7,-7.800000000000001
8,4273.038382064532
9,1.0
10,598.0969199229219
11,1.0
12,598.0969199229219
13,4273.038382064532
14,6.615837678485458
15,21.526165855474269
16,10.470392772262756
17,-2.013753723172897
18,5.500043174008953
2,1, 1, 1, 0,10,30.00,45.00,Tuesday
7,-7.25
8,4570.41705598247
9,1.0
10,637.6133352894237
11,1.0
12,637.6133352894237
13,4570.41705598247
14,6.87191950729329
15,21.58537836777438
16,11.20091764307017
17,-1.5223842651921587
18,5.792312782310038
2,1, 1, 1, 0,10,45.00,60.00,Tuesday
7,-6.7
8,4863.415499985352
9,1.0
10,676.6412284283772
11,1.0
12,676.6412284283772
13,4863.415499985352
14,7.152772901754072
15,21.745229216841478
16,11.905581292127579
17,-1.0342954942118468
18,6.085589323461117
2,1, 1, 1, 0,11, 0.00,15.00,Tuesday
7,-6.275
8,5151.083555253686
9,1.0
10,715.0112779846514
11,1.0
12,715.0112779846514
13,5151.083555253686
14,7.510938729744357
15,23.843182665565317
16,12.651740535798183
17,-0.320323485994777
18,6.380568771645038
2,1, 1, 1, 0,11,15.00,30.00,Tuesday
7,-5.85
8,5431.980261502767
9,1.0
10,752.5077794605232
11,1.0
12,752.5077794605232
13,5431.980261502767
14,7.859040833898717
15,25.778484483371824
16,13.391617570380959
17,0.3738822645936466
18,6.680519819509164
2,1, 1, 1, 0,11,30.00,45.00,Tuesday
7,-5.425
8,5348.498206243613
9,1.0
10,742.5988714321785
11,1.0
12,742.5988714321785
13,5348.498206243613
14,8.068280256133097
15,25.630481904652187
16,13.550944730076822
17,0.6665701115326215
18,6.967065986247844
2,1, 1, 1, 0,11,45.00,60.00,Tuesday
7,-5.0
8,5229.212085323862
9,1.0
10,727.8169025450712
11,1.0
12,727.8169025450712
13,5229.212085323862
14,8.272698833662023
15,25.401633409333177
16,13.622740066223458
17,0.9276100546869088
18,7.226586130551635
2,1, 1, 1, 0,12, 0.00,15.00,Tuesday
7,-4.575
8,5024.076099878796
9,1.0
10,700.3759009170325
11,1.0
12,700.3759009170325
13,5024.076099878796
14,8.417915698529029
15,24.65930861781638
16,13.543099877187843
17,1.1305053382894812
18,7.451382516238027
2,1, 1, 1, 0,12,15.00,30.00,Tuesday
7,-4.15
8,4871.94122931558
9,1.0
10,681.6705029034473
11,1.0
12,681.6705029034473
13,4871.94122931558
14,8.584262632336208
15,24.329143539732887
16,13.543603738975776
17,1.4002852313147969
18,7.649163217812812
2,1, 1, 1, 0,12,30.00,45.00,Tuesday
7,-3.7249999999999998
8,4277.158639322997
9,1.0
10,602.01865277251
11,1.0
12,602.01865277251
13,4277.158639322997
14,8.507958902792574
15,21.300945144601866
16,12.795846028604501
17,1.1865643074725086
18,7.797530607645855
2,1, 1, 1, 0,12,45.00,60.00,Tuesday
7,-3.3
8,3493.2091881935878
9,1.0
10,493.55004396206007
11,1.0
12,493.55004396206007
13,3493.2091881935878
14,8.315525457303976
15,17.122752371896615
16,11.592525664445816
17,0.7213697015156413
18,7.870913157168805
2,1, 1, 1, 0,13, 0.00,15.00,Tuesday
7,-3.0249999999999996
8,2884.3295946875239
9,1.0
10,412.335026418112
11,1.0
12,412.335026418112
13,2884.3295946875239
14,8.181749535688331
15,14.278833455931194
16,10.628791809802863
17,0.40339288154439148
18,7.883960208740476
2,1, 1, 1, 0,13,15.00,30.00,Tuesday
7,-2.75
8,2112.505852962877
9,1.0
10,305.94037763660148
11,1.0
12,305.94037763660148
13,2112.505852962877
14,7.87957673098988
15,10.105873380143527
16,9.294925080264079
17,-0.14138078135931665
18,7.8456326708962929
2,1, 1, 1, 0,13,30.00,45.00,Tuesday
7,-2.475
8,1928.6430638732532
9,1.0
10,281.0763483922329
11,1.0
12,281.0763483922329
13,1928.6430638732532
14,7.851794470699712
15,9.593335428822006
16,8.975117399503347
17,-0.02603417559822674
18,7.792629721573117
2,1, 1, 1, 0,13,45.00,60.00,Tuesday
7,-2.2
8,1748.610390799348
9,1.0
10,256.7721209415886
11,1.0
12,256.7721209415886
13,1748.610390799348
14,7.818863953378911
15,8.9869144904085
16,8.726888972910615
17,0.1136599309641042
18,7.74758183386065
2,1, 1, 1, 0,14, 0.00,15.00,Tuesday
7,-1.9250000000000003
8,1428.4368474723443
9,1.0
10,210.73276284570657
11,1.0
12,210.73276284570657
13,1428.4368474723443
14,7.6814662935747128
15,7.439523081066745
16,8.153936691205104
17,0.03323308315509621
18,7.707539878617167
2,1, 1, 1, 0,14,15.00,30.00,Tuesday
7,-1.6500000000000002
8,1268.9130128286689
9,1.0
10,189.38488290342594
11,1.0
12,189.38488290342594
13,1268.9130128286689
14,7.647615680479214
15,7.034800422013935
16,7.883300568688583
17,0.14910416136427785
18,7.672245936084615
2,1, 1, 1, 0,14,30.00,45.00,Tuesday
7,-1.375
8,1210.1839078162066
9,1.0
10,179.3940297802914
11,1.0
12,179.3940297802914
13,1210.1839078162066
14,7.641343287700121
15,7.158029581314767
16,7.8262464016807489
17,0.3817145658026675
18,7.643231578469744
2,1, 1, 1, 0,14,45.00,60.00,Tuesday
7,-1.1
8,1150.7838549837705
9,1.0
10,169.43349014176136
11,1.0
12,169.43349014176136
13,1150.7838549837705
14,7.6308016715332809
15,7.256962123137939
16,7.7626829152396799
17,0.6124286633381644
18,7.619968313953547
2,1, 1, 1, 0,15, 0.00,15.00,Tuesday
7,-1.1
8,1211.2722036175777
9,1.0
10,178.15692317953907
11,1.0
12,178.15692317953907
13,1211.2722036175777
14,7.692978100760856
15,8.076142518671812
16,7.905185626773914
17,0.7485153672123488
18,7.605362578553696
2,1, 1, 1, 0,15,15.00,30.00,Tuesday
7,-1.1
8,1137.9569692377798
9,1.0
10,166.40516310952945
11,1.0
12,166.40516310952945
13,1137.9569692377798
14,7.642204102697705
15,7.711952505740239
16,7.754468061467264
17,0.6901851379514596
18,7.594289141292827
2,1, 1, 1, 0,15,30.00,45.00,Tuesday
7,-1.1
8,959.5048700077512
9,1.0
10,140.8967369711617
11,1.0
12,140.8967369711617
13,959.5048700077512
14,7.526389849233653
15,6.505129662573444
16,7.331095372705704
17,0.4594631178853774
18,7.576895890376783
2,1, 1, 1, 0,15,45.00,60.00,Tuesday
7,-1.1
8,789.5943100591383
9,1.0
10,116.57355796743004
11,1.0
12,116.57355796743004
13,789.5943100591383
14,7.414350289672663
15,5.297392098752162
16,6.928332191519644
17,0.22365022268741087
18,7.54237036627296
2,1, 1, 1, 0,16, 0.00,15.00,Tuesday
7,-1.1
8,626.6670946064958
9,1.0
10,93.14939272689483
11,1.0
12,93.14939272689483
13,626.6670946064958
14,7.314329221263791
15,4.247004942868489
16,6.571824421620363
17,0.06561861723969287
18,7.488883388014981
2,1, 1, 1, 0,16,15.00,30.00,Tuesday
7,-1.1
8,389.0360678411529
9,1.0
10,57.94047897402063
11,1.0
12,57.94047897402063
13,389.0360678411529
14,7.124920068574889
15,2.1227500505286249
16,6.0325358515484599
17,-0.24418632611690328
18,7.409623810400568
2,1, 1, 1, 0,16,30.00,45.00,Tuesday
7,-1.1
8,301.6300334628514
9,1.0
10,45.38251793443488
11,1.0
12,45.38251793443488
13,301.6300334628514
14,7.05037753284555
15,1.5121262625380827
16,5.8013144527351419
17,-0.3070070951313255
18,7.315824325980664
2,1, 1, 1, 0,16,45.00,60.00,Tuesday
7,-1.1
8,210.55774644166127
9,1.0
10,32.02625108222755
11,1.0
12,32.02625108222755
13,210.55774644166127
14,6.93704491287734
15,0.6487488468547826
16,5.580974463997052
17,-0.3750390168764852
18,7.221875029848451
2,1, 1, 1, 0,17, 0.00,15.00,Tuesday
7,-1.1
8,115.49062901598868
9,1.0
10,17.762198626050539
11,1.0
12,17.762198626050539
13,115.49062901598868
14,6.7985930398902749
15,-0.6025454263910494
16,5.305137284857722
17,-0.5568506580659687
18,7.128499043432524
2,1, 1, 1, 0,17,15.00,30.00,Tuesday
7,-1.1
8,0.0
9,0.0
10,0.0
11,0.0
12,0.0
13,0.0
14,6.611010718344057
15,-2.4397979651417418
16,4.957854763282739
17,-0.84316412260182
18,7.024380442549984
2,1, 1, 1, 0,17,30.00,45.00,Tuesday
7,-1.1
8,0.0
9,0.0
10,0.0
11,0.0
12,0.0
13,0.0
14,6.555138816270949
15,-2.5756704973176229
16,4.869837397109393
17,-0.8474432039464546
18,6.923317272175475
2,1, 1, 1, 0,17,45.00,60.00,Tuesday
7,-1.1
8,0.0
9,0.0
10,0.0
11,0.0
12,0.0
13,0.0
14,6.484123805788244
15,-2.766634104092676
16,4.822438947104104
17,-0.8355761523540082
18,6.838322995504361
2,1, 1, 1, 0,18, 0.00,15.00,Tuesday
7,-1.25
8,0.0
9,0.0
10,0.0
11,0.0
12,0.0
13,0.0
14,6.424559364089548
15,-2.914470970751163
16,4.733725812893795
17,-0.9743319279411935
18,6.770159815903552
2,1, 1, 1, 0,18,15.00,30.00,Tuesday
7,-1.4
8,0.0
9,0.0
10,0.0
11,0.0
12,0.0
13,0.0
14,6.3702234111146949
15,-3.0668867797951497
16,4.658902242697081
17,-1.1048379996146878
18,6.713775132065167
2,1, 1, 1, 0,18,30.00,45.00,Tuesday
7,-1.5499999999999999
8,0.0
9,0.0
10,0.0
11,0.0
12,0.0
13,0.0
14,6.320096878828111
15,-3.2188366962936398
16,4.588388059584759
17,-1.2344836343735893
18,6.663916357894993
2,1, 1, 1, 0,18,45.00,60.00,Tuesday
7,-1.7
8,0.0
9,0.0
10,0.0
11,0.0
12,0.0
13,0.0
14,6.272013469002716
15,-3.3709551346048478
16,4.520750137599919
17,-1.36341045162942
18,6.617229717563056
2,1, 1, 1, 0,19, 0.00,15.00,Tuesday
7,-1.825
8,0.0
9,0.0
10,0.0
11,0.0
12,0.0
13,0.0
14,6.248993409522544
15,-3.2236947549113816
16,4.450569227601477
17,-1.5007138789034116
18,6.575548676855726
2,1, 1, 1, 0,19,15.00,30.00,Tuesday
7,-1.9500000000000002
8,0.0
9,0.0
10,0.0
11,0.0
12,0.0
13,0.0
14,6.224921658132956
15,-3.1577610793873038
16,4.392009478673913
17,-1.632379925637622
18,6.540640058630786
2,1, 1, 1, 0,19,30.00,45.00,Tuesday
7,-2.075
8,0.0
9,0.0
10,0.0
11,0.0
12,0.0
13,0.0
14,6.196329094276878
15,-3.2317878247225648
16,4.3438611603175449
17,-1.7439258699038192
18,6.511053390814378
2,1, 1, 1, 0,19,45.00,60.00,Tuesday
7,-2.2
8,0.0
9,0.0
10,0.0
11,0.0
12,0.0
13,0.0
14,6.17067908992569
15,-3.210318497760292
16,4.289623490707299
17,-1.8727808146941243
18,6.483748790626084
2,1, 1, 1, 0,20, 0.00,15.00,Tuesday
7,-1.9250000000000003
8,0.0
9,0.0
10,0.0
11,0.0
12,0.0
13,0.0
14,6.160822300249805
15,-2.909333578404643
16,4.331451821297833
17,-1.6643515856139857
18,6.4591386509563659
2,1, 1, 1, 0,20,15.00,30.00,Tuesday
7,-1.6500000000000002
8,0.0
9,0.0
10,0.0
11,0.0
12,0.0
13,0.0
14,6.15148068292032
15,-2.611319089145471
16,4.372271741643658
17,-1.4446860670172442
18,6.437734754179339
2,1, 1, 1, 0,20,30.00,45.00,Tuesday
7,-1.375
8,0.0
9,0.0
10,0.0
11,0.0
12,0.0
13,0.0
14,6.144834664166159
15,-2.314583115257654
16,4.414546556020412
17,-1.223517293584905
18,6.4192760118823009
2,1, 1, 1, 0,20,45.00,60.00,Tuesday
7,-1.1
8,0.0
9,0.0
10,0.0
11,0.0
12,0.0
13,0.0
14,6.138777939830073
15,-2.0191403975962989
16,4.459294971540658
17,-0.9996378799935428
18,6.403040627368143
2,1, 1, 1, 0,21, 0.00,15.00,Tuesday
7,-1.25
8,0.0
9,0.0
10,0.0
11,0.0
12,0.0
13,0.0
14,6.090816092721603
15,-2.2994616844031046
16,4.416787948653678
17,-1.0898930216457075
18,6.382162416656993
2,1, 1, 1, 0,21,15.00,30.00,Tuesday
7,-1.4
8,0.0
9,0.0
10,0.0
11,0.0
12,0.0
13,0.0
14,6.044451680349618
15,-2.5155699060850678
16,4.362189356119643
17,-1.1958272080773327
18,6.3519678351577328
2,1, 1, 1, 0,21,30.00,45.00,Tuesday
7,-1.5499999999999999
8,0.0
9,0.0
10,0.0
11,0.0
12,0.0
13,0.0
14,5.984616620390193
15,-2.8588384537557687
16,4.3102222554659879
17,-1.2848874100972126
18,6.311625874921632
2,1, 1, 1, 0,21,45.00,60.00,Tuesday
7,-1.7
8,0.0
9,0.0
10,0.0
11,0.0
12,0.0
13,0.0
14,5.91949995162564
15,-3.3095345358115835
16,4.258676225091904
17,-1.3501565357507844
18,6.2633875617490279
2,1, 1, 1, 0,22, 0.00,15.00,Tuesday
7,-1.5499999999999999
8,0.0
9,0.0
10,0.0
11,0.0
12,0.0
13,0.0
14,5.922770583140172
15,-2.8234319551894555
16,4.233236559923114
17,-1.300627299837629
18,6.220797100291872
2,1, 1, 1, 0,22,15.00,30.00,Tuesday
7,-1.4
8,0.0
9,0.0
10,0.0
11,0.0
12,0.0
13,0.0
14,5.916180861853849
15,-2.494287105794871
16,4.241814173145599
17,-1.2167077424034006
18,6.191176086882826
2,1, 1, 1, 0,22,30.00,45.00,Tuesday
7,-1.25
8,0.0
9,0.0
10,0.0
11,0.0
12,0.0
13,0.0
14,5.908447111135446
15,-2.2746339962106254
16,4.257226214543323
17,-1.1131130475495184
18,6.172266775021614
2,1, 1, 1, 0,22,45.00,60.00,Tuesday
7,-1.1
8,0.0
9,0.0
10,0.0
11,0.0
12,0.0
13,0.0
14,5.904697288541167
15,-1.9929050741496984
16,4.2736451194832629
17,-1.0108178867319567
18,6.15881797752882
2,1, 1, 1, 0,23, 0.00,15.00,Tuesday
7,-1.25
8,0.0
9,0.0
10,0.0
11,0.0
12,0.0
13,0.0
14,5.856277435407349
15,-2.2962766127423159
16,4.18325908084239
17,-1.2856612297663333
18,6.140290860538044
2,1, 1, 1, 0,23,15.00,30.00,Tuesday
7,-1.4
8,0.0
9,0.0
10,0.0
11,0.0
12,0.0
13,0.0
14,5.8108186679570459
15,-2.6008732701914778
16,4.080767047190079
17,-1.578923676008685
18,6.1115354218169088
2,1, 1, 1, 0,23,30.00,45.00,Tuesday
7,-1.5499999999999999
8,0.0
9,0.0
10,0.0
11,0.0
12,0.0
13,0.0
14,5.760670045245029
15,-2.906140897675577
16,3.9765567981709184
17,-1.874081736495441
18,6.07369927322193
2,1, 1, 1, 0,23,45.00,60.00,Tuesday
7,-1.7
8,0.0
9,0.0
10,0.0
11,0.0
12,0.0
13,0.0
14,5.706640050373114
15,-3.2117499731038277
16,3.8692618202360338
17,-2.1672954283085916
18,6.029785808159237
2,1, 1, 1, 0,24, 0.00,15.00,Tuesday
7,-1.7
8,0.0
9,0.0
10,0.0
11,0.0
12,0.0
13,0.0
14,5.668750622946379
15,-3.265796974466462
16,3.8201532812485086
17,-2.2303052641753995
18,5.985375164213549
2,1, 1, 1, 0,24,15.00,30.00,Tuesday
7,-1.7
8,0.0
9,0.0
10,0.0
11,0.0
12,0.0
13,0.0
14,5.628720182323973
15,-3.3204657522702099
16,3.7750378039492036
17,-2.291579890967739
18,5.943449449981491
2,1, 1, 1, 0,24,30.00,45.00,Tuesday
7,-1.7
8,0.0
9,0.0
10,0.0
11,0.0
12,0.0
13,0.0
14,5.589733994902004
15,-3.3750266995730886
16,3.729741797642646
17,-2.352853734600103
18,5.904011696852032
2,1, 1, 1, 0,24,45.00,60.00,Tuesday
7,-1.7
8,0.0
9,0.0
10,0.0
11,0.0
12,0.0
13,0.0
14,5.551542265809536
15,-3.429589991344451
16,3.6853343398538529
17,-2.4138350629975777
18,5.866060107025335
End of Data
 Number of Records Written=        1152
