Program Version,EnergyPlus, Version 9.5.0-de239b2e5f, YMD=2022.11.08 09:47
1,5,Environment Title[],Latitude[deg],Longitude[deg],Time Zone[],Elevation[m]
2,8,Day of Simulation[],Month[],Day of Month[],DST Indicator[1=yes 0=no],Hour[],StartMinute[],EndMinute[],DayType
3,5,Cumulative Day of Simulation[],Month[],Day of Month[],DST Indicator[1=yes 0=no],DayType  ! When Daily Report Variables Requested
4,2,Cumulative Days of Simulation[],Month[]  ! When Monthly Report Variables Requested
5,1,Cumulative Days of Simulation[] ! When Run Period Report Variables Requested
6,1,Calendar Year of Simulation[] ! When Annual Report Variables Requested
7,1,Environment,Site Outdoor Air Drybulb Temperature [C] !TimeStep
8,1,ZONE ONE,Zone Windows Total Transmitted Solar Radiation Rate [W] !TimeStep
9,1,ZN001:WALL001,Surface Outside Face Sunlit Fraction [] !TimeStep
10,1,ZN001:WALL001,Surface Outside Face Incident Solar Radiation Rate per Area [W/m2] !TimeStep
11,1,ZN001:WALL001:WIN001,Surface Outside Face Sunlit Fraction [] !TimeStep
12,1,ZN001:WALL001:WIN001,Surface Outside Face Incident Solar Radiation Rate per Area [W/m2] !TimeStep
13,1,ZN001:WALL001:WIN001,Surface Window Transmitted Solar Radiation Rate [W] !TimeStep
14,1,ZN001:WALL001,Surface Inside Face Temperature [C] !TimeStep
15,1,ZN001:WALL001,Surface Outside Face Temperature [C] !TimeStep
16,1,ZN001:WALL001:WIN001,Surface Inside Face Temperature [C] !TimeStep
17,1,ZN001:WALL001:WIN001,Surface Outside Face Temperature [C] !TimeStep
18,1,ZONE ONE,Zone Mean Air Temperature [C] !TimeStep
End of Data Dictionary
1,RUN PERIOD 1,  41.98, -87.92,  -6.00, 201.00
2,1, 1, 1, 0, 1, 0.00,15.00,Tuesday
7,-4.324999999999999
8,0.0
9,0.0
10,0.0
11,0.0
12,0.0
13,0.0
14,6.820764363693409
15,-5.879736558026493
16,4.3412364994097178
17,-4.229157088136276
18,7.303482457552735
2,1, 1, 1, 0, 1,15.00,30.00,Tuesday
7,-6.949999999999999
8,0.0
9,0.0
10,0.0
11,0.0
12,0.0
13,0.0
14,6.637132147342578
15,-8.347005287793836
16,3.737975238922104
17,-6.31669934912577
18,7.20245910406335
2,1, 1, 1, 0, 1,30.00,45.00,Tuesday
7,-9.575
8,0.0
9,0.0
10,0.0
11,0.0
12,0.0
13,0.0
14,6.43341430003362
15,-10.822225660834193
16,3.1283025773364558
17,-8.410490726381113
18,7.069860554740776
2,1, 1, 1, 0, 1,45.00,60.00,Tuesday
7,-12.2
8,0.0
9,0.0
10,0.0
11,0.0
12,0.0
13,0.0
14,6.213842563668673
15,-13.304074461048105
16,2.5036615125040386
17,-10.511878585691534
18,6.915475669752043
2,1, 1, 1, 0, 2, 0.00,15.00,Tuesday
7,-12.075
8,0.0
9,0.0
10,0.0
11,0.0
12,0.0
13,0.0
14,6.14233097165832
15,-13.104933954348598
16,2.4323555461938897
17,-10.352362241427045
18,6.776337720590781
2,1, 1, 1, 0, 2,15.00,30.00,Tuesday
7,-11.95
8,0.0
9,0.0
10,0.0
11,0.0
12,0.0
13,0.0
14,6.057506697375241
15,-12.927928403881781
16,2.395530691692329
17,-10.20831625393032
18,6.669209681589775
2,1, 1, 1, 0, 2,30.00,45.00,Tuesday
7,-11.825
8,0.0
9,0.0
10,0.0
11,0.0
12,0.0
13,0.0
14,5.989896918858085
15,-12.749769341264248
16,2.3644827778266519
17,-10.063843150489504
18,6.5884697296665239
2,1, 1, 1, 0, 2,45.00,60.00,Tuesday
7,-11.7
8,0.0
9,0.0
10,0.0
11,0.0
12,0.0
13,0.0
14,5.933423026337297
15,-12.571694043756269
16,2.3461322756804749
17,-9.916731836520512
18,6.5230134976540159
2,1, 1, 1, 0, 3, 0.00,15.00,Tuesday
7,-11.549999999999999
8,0.0
9,0.0
10,0.0
11,0.0
12,0.0
13,0.0
14,5.878606852703193
15,-12.445000285364446
16,2.3354554171579595
17,-9.768174527343263
18,6.463949596193418
2,1, 1, 1, 0, 3,15.00,30.00,Tuesday
7,-11.399999999999999
8,0.0
9,0.0
10,0.0
11,0.0
12,0.0
13,0.0
14,5.826958366289089
15,-12.319649079728415
16,2.330311168798744
17,-9.629010709520685
18,6.4070381416414279
2,1, 1, 1, 0, 3,30.00,45.00,Tuesday
7,-11.25
8,0.0
9,0.0
10,0.0
11,0.0
12,0.0
13,0.0
14,5.776055642407886
15,-12.19578659770419
16,2.3197706791896168
17,-9.470482746547873
18,6.350986271318641
2,1, 1, 1, 0, 3,45.00,60.00,Tuesday
7,-11.1
8,0.0
9,0.0
10,0.0
11,0.0
12,0.0
13,0.0
14,5.725733737381641
15,-12.073474485656228
16,2.316830622085945
17,-9.330453985188285
18,6.295750879381502
2,1, 1, 1, 0, 4, 0.00,15.00,Tuesday
7,-11.1
8,0.0
9,0.0
10,0.0
11,0.0
12,0.0
13,0.0
14,5.671567068132312
15,-12.045951555484413
16,2.2573861197995486
17,-9.362111960887887
18,6.240386167717642
2,1, 1, 1, 0, 4,15.00,30.00,Tuesday
7,-11.1
8,0.0
9,0.0
10,0.0
11,0.0
12,0.0
13,0.0
14,5.617826915399281
15,-12.019489743179032
16,2.2038255009363185
17,-9.400274229294837
18,6.184536012099054
2,1, 1, 1, 0, 4,30.00,45.00,Tuesday
7,-11.1
8,0.0
9,0.0
10,0.0
11,0.0
12,0.0
13,0.0
14,5.563886870006313
15,-11.99451909698933
16,2.1510291406802368
17,-9.438029850945782
18,6.128350235225055
2,1, 1, 1, 0, 4,45.00,60.00,Tuesday
7,-11.1
8,0.0
9,0.0
10,0.0
11,0.0
12,0.0
13,0.0
14,5.509870738601752
15,-11.97090969293369
16,2.0984601665378479
17,-9.474763279341687
18,6.072072734571632
2,1, 1, 1, 0, 5, 0.00,15.00,Tuesday
7,-10.975
8,0.0
9,0.0
10,0.0
11,0.0
12,0.0
13,0.0
14,5.461471068680984
15,-11.849030991984149
16,2.083056117230228
17,-9.389100317585985
18,6.016939225738146
2,1, 1, 1, 0, 5,15.00,30.00,Tuesday
7,-10.85
8,0.0
9,0.0
10,0.0
11,0.0
12,0.0
13,0.0
14,5.413301065782708
15,-11.727216955665052
16,2.0654463330292858
17,-9.295353265998643
18,5.963435356767663
2,1, 1, 1, 0, 5,30.00,45.00,Tuesday
7,-10.725
8,0.0
9,0.0
10,0.0
11,0.0
12,0.0
13,0.0
14,5.366178665291622
15,-11.605379904661163
16,2.0481329562709336
17,-9.200755255696777
18,5.911321689422912
2,1, 1, 1, 0, 5,45.00,60.00,Tuesday
7,-10.6
8,0.0
9,0.0
10,0.0
11,0.0
12,0.0
13,0.0
14,5.31992476424017
15,-11.4835522558998
16,2.0316371477546228
17,-9.105918613573977
18,5.860212090413749
2,1, 1, 1, 0, 6, 0.00,15.00,Tuesday
7,-10.6
8,0.0
9,0.0
10,0.0
11,0.0
12,0.0
13,0.0
14,5.266771825081312
15,-11.484584232990507
16,1.9863794447498436
17,-9.107739248548626
18,5.808496845429133
2,1, 1, 1, 0, 6,15.00,30.00,Tuesday
7,-10.6
8,0.0
9,0.0
10,0.0
11,0.0
12,0.0
13,0.0
14,5.214257647637883
15,-11.485568257146286
16,1.9421983786378406
17,-9.116136521353497
18,5.755472594261005
2,1, 1, 1, 0, 6,30.00,45.00,Tuesday
7,-10.6
8,0.0
9,0.0
10,0.0
11,0.0
12,0.0
13,0.0
14,5.161212346325529
15,-11.48659419035237
16,1.898205581822026
17,-9.125107666055215
18,5.701429510529951
2,1, 1, 1, 0, 6,45.00,60.00,Tuesday
7,-10.6
8,0.0
9,0.0
10,0.0
11,0.0
12,0.0
13,0.0
14,5.1078669962123899
15,-11.48761773488193
16,1.8538582920850786
17,-9.13422295498583
18,5.646886862061612
2,1, 1, 1, 0, 7, 0.00,15.00,Tuesday
7,-10.6
8,0.0
9,0.0
10,0.0
11,0.0
12,0.0
13,0.0
14,5.056462159183677
15,-11.464855005001441
16,1.802519268246897
17,-9.165599123836387
18,5.592500358001399
2,1, 1, 1, 0, 7,15.00,30.00,Tuesday
7,-10.6
8,0.0
9,0.0
10,0.0
11,0.0
12,0.0
13,0.0
14,5.00495334766905
15,-11.443272673566386
16,1.7531267251407599
17,-9.197220286203219
18,5.53860915174184
2,1, 1, 1, 0, 7,30.00,45.00,Tuesday
7,-10.6
8,0.0
9,0.0
10,0.0
11,0.0
12,0.0
13,0.0
14,4.953744296059877
15,-11.42278970825536
16,1.7042005316422433
17,-9.228019060361476
18,5.485195913241134
2,1, 1, 1, 0, 7,45.00,60.00,Tuesday
7,-10.6
8,0.0
9,0.0
10,0.0
11,0.0
12,0.0
13,0.0
14,4.902840586170666
15,-11.403340790112097
16,1.6557874101541757
17,-9.25784936919456
18,5.432149915796676
2,1, 1, 1, 0, 8, 0.00,15.00,Tuesday
7,-10.45
8,0.0
9,0.0
10,0.0
11,0.0
12,0.0
13,0.0
14,4.851435051392355
15,-11.353816823559419
16,1.632979902991167
17,-9.205114553991166
18,5.379170377104358
2,1, 1, 1, 0, 8,15.00,30.00,Tuesday
7,-10.3
8,174.7864351371914
9,1.0
10,22.819555959623899
11,1.0
12,22.819555959623899
13,174.7864351371914
14,4.923467534981645
15,-9.680039825139565
16,1.9231065235331358
17,-8.880051256859133
18,5.3451955817086029
2,1, 1, 1, 0, 8,30.00,45.00,Tuesday
7,-10.15
8,858.2031484764398
9,1.0
10,109.75755355442667
11,1.0
12,109.75755355442667
13,858.2031484764398
14,5.3325303760769728
15,-3.3073515747199675
16,3.164740293170837
17,-7.783334298934619
18,5.3831430499136518
2,1, 1, 1, 0, 8,45.00,60.00,Tuesday
7,-10.0
8,1560.550294665561
9,1.0
10,195.8764694434918
11,1.0
12,195.8764694434918
13,1560.550294665561
14,5.850955203958973
15,3.1714167057846986
16,4.538751708502446
17,-6.689541382779282
18,5.500603731736517
2,1, 1, 1, 0, 9, 0.00,15.00,Tuesday
7,-9.725
8,2260.4782869783118
9,1.0
10,278.97248314719988
11,1.0
12,278.97248314719988
13,2260.4782869783118
14,6.293935834727129
15,8.350077240765368
16,5.975028599864743
17,-5.695019305337155
18,5.6734105592888028
2,1, 1, 1, 0, 9,15.00,30.00,Tuesday
7,-9.45
8,2998.2825980378349
9,1.0
10,364.91995730569456
11,1.0
12,364.91995730569456
13,2998.2825980378349
14,6.748460543275459
15,13.426205188613216
16,7.387358166969705
17,-4.703863902812657
18,5.8923826296623889
2,1, 1, 1, 0, 9,30.00,45.00,Tuesday
7,-9.175
8,3486.4111268393346
9,1.0
10,420.35879993239237
11,1.0
12,420.35879993239237
13,3486.4111268393346
14,7.073682360583486
15,16.183394874347955
16,8.336019664046149
17,-4.09164745285932
18,6.137082801264519
2,1, 1, 1, 0, 9,45.00,60.00,Tuesday
7,-8.9
8,3993.1284261598059
9,1.0
10,478.00138373643099
11,1.0
12,478.00138373643099
13,3993.1284261598059
14,7.454168554989043
15,19.177829223155717
16,9.276944876661333
17,-3.4588528188367038
18,6.396776515827993
2,1, 1, 1, 0,10, 0.00,15.00,Tuesday
7,-8.350000000000002
8,4510.551232763549
9,1.0
10,536.9185644770597
11,1.0
12,536.9185644770597
13,4510.551232763549
14,7.782904968292132
15,20.29322721186277
16,10.249438387182977
17,-2.783156626037396
18,6.671485251273195
2,1, 1, 1, 0,10,15.00,30.00,Tuesday
7,-7.800000000000001
8,5045.849443286483
9,1.0
10,598.0969199229219
11,1.0
12,598.0969199229219
13,5045.849443286483
14,8.14167881063094
15,21.544600063990467
16,11.23844620517275
17,-2.1076971010601257
18,6.96675242029172
2,1, 1, 1, 0,10,30.00,45.00,Tuesday
7,-7.25
8,5397.0112822571759
9,1.0
10,637.6133352894237
11,1.0
12,637.6133352894237
13,5397.0112822571759
14,8.422460121482512
15,21.602779343573475
16,11.961058180903138
17,-1.6282474081619967
18,7.091468244723673
2,1, 1, 1, 0,10,45.00,60.00,Tuesday
7,-6.7
8,5743.00069385932
9,1.0
10,676.6412284283772
11,1.0
12,676.6412284283772
13,5743.00069385932
14,8.681949327137895
15,21.760521430388807
16,12.631835080862573
17,-1.1547234806835718
18,7.337316266948968
2,1, 1, 1, 0,11, 0.00,15.00,Tuesday
7,-6.275
8,6082.695675919562
9,1.0
10,715.0112779846514
11,1.0
12,715.0112779846514
13,6082.695675919562
14,8.989466536008049
15,23.857423132796293
16,13.313791334758719
17,-0.464949573299009
18,7.5273739511077999
2,1, 1, 1, 0,11,15.00,30.00,Tuesday
7,-5.85
8,6414.394659670735
9,1.0
10,752.5077794605232
11,1.0
12,752.5077794605232
13,6414.394659670735
14,9.364637464021861
15,25.794272544691859
16,14.0227067913454
17,0.21054959879757008
18,7.972505283930193
2,1, 1, 1, 0,11,30.00,45.00,Tuesday
7,-5.425
8,6315.814248174245
9,1.0
10,742.5988714321785
11,1.0
12,742.5988714321785
13,6315.814248174245
14,9.65435621339759
15,25.647912693878287
16,14.240946486309781
17,0.5160147688310417
18,8.366923967062832
2,1, 1, 1, 0,11,45.00,60.00,Tuesday
7,-5.0
8,6174.954337026589
9,1.0
10,727.8169025450712
11,1.0
12,727.8169025450712
13,6174.954337026589
14,9.905926398231815
15,25.418968900863804
16,14.374421118946828
17,0.791498721538801
18,8.702525187319795
2,1, 1, 1, 0,12, 0.00,15.00,Tuesday
7,-4.575
8,5932.717969036658
9,1.0
10,700.3759009170325
11,1.0
12,700.3759009170325
13,5932.717969036658
14,10.084444891951055
15,24.676901724825528
16,14.347077693726476
17,1.0110600068837812
18,8.985976214988288
2,1, 1, 1, 0,12,15.00,30.00,Tuesday
7,-4.15
8,5753.068365336172
9,1.0
10,681.6705029034473
11,1.0
12,681.6705029034473
13,5753.068365336172
14,10.247988047432266
15,24.346113251665679
16,14.371182572174348
17,1.2921346895093394
18,9.231499672797666
2,1, 1, 1, 0,12,30.00,45.00,Tuesday
7,-3.7249999999999998
8,5050.714880004982
9,1.0
10,602.01865277251
11,1.0
12,602.01865277251
13,5050.714880004982
14,10.192563706683526
15,21.318855763639417
16,13.694319388150689
17,1.1174039623921317
18,9.416461929388288
2,1, 1, 1, 0,12,45.00,60.00,Tuesday
7,-3.3
8,4124.9822869725799
9,1.0
10,493.55004396206007
11,1.0
12,493.55004396206007
13,4124.9822869725799
14,10.002259081187276
15,17.140780923081043
16,12.573795343978532
17,0.7007028395270254
18,9.514374551996495
2,1, 1, 1, 0,13, 0.00,15.00,Tuesday
7,-3.0249999999999996
8,3405.982249241685
9,1.0
10,412.335026418112
11,1.0
12,412.335026418112
13,3405.982249241685
14,9.871242286248766
15,14.297299404753926
16,11.670568817923766
17,0.4227041461479075
18,9.542706278203195
2,1, 1, 1, 0,13,15.00,30.00,Tuesday
7,-2.75
8,2494.5683911650914
9,1.0
10,305.94037763660148
11,1.0
12,305.94037763660148
13,2494.5683911650914
14,9.558028623120724
15,10.12463745225309
16,10.403246736087568
17,-0.07397728506799695
18,9.512036217489595
2,1, 1, 1, 0,13,30.00,45.00,Tuesday
7,-2.475
8,2277.4526367486735
9,1.0
10,281.0763483922329
11,1.0
12,281.0763483922329
13,2277.4526367486735
14,9.530833808280886
15,9.612797317578569
16,10.093334700219657
17,0.054021282899157089
18,9.463361793221078
2,1, 1, 1, 0,13,45.00,60.00,Tuesday
7,-2.2
8,2064.859703575066
9,1.0
10,256.7721209415886
11,1.0
12,256.7721209415886
13,2064.859703575066
14,9.495494604760357
15,9.00638353347225
16,9.861909898213412
17,0.206807151972896
18,9.421821431073197
2,1, 1, 1, 0,14, 0.00,15.00,Tuesday
7,-1.9250000000000003
8,1686.7803719836268
9,1.0
10,210.73276284570657
11,1.0
12,210.73276284570657
13,1686.7803719836268
14,9.346765296613996
15,7.459474230231003
16,9.293048711374184
17,0.14454108016224155
18,9.384704137000915
2,1, 1, 1, 0,14,15.00,30.00,Tuesday
7,-1.6500000000000002
8,1498.4054545926868
9,1.0
10,189.38488290342594
11,1.0
12,189.38488290342594
13,1498.4054545926868
14,9.310183457331423
15,7.055855513380729
16,9.036451588423234
17,0.275122239175289
18,9.351623795927573
2,1, 1, 1, 0,14,30.00,45.00,Tuesday
7,-1.375
8,1429.054750167156
9,1.0
10,179.3940297802914
11,1.0
12,179.3940297802914
13,1429.054750167156
14,9.299969438218368
15,7.179705060898464
16,8.985087047526008
17,0.5139634824216728
18,9.32380119069107
2,1, 1, 1, 0,14,45.00,60.00,Tuesday
7,-1.1
8,1358.9117519728166
9,1.0
10,169.43349014176136
11,1.0
12,169.43349014176136
13,1358.9117519728166
14,9.285998364851532
15,7.279584866742461
16,8.926745029292932
17,0.7512814610399801
18,9.300590980293832
2,1, 1, 1, 0,15, 0.00,15.00,Tuesday
7,-1.1
8,1430.3398724314798
9,1.0
10,178.15692317953907
11,1.0
12,178.15692317953907
13,1430.3398724314798
14,9.350160039124268
15,8.09903116265067
16,9.058036707246743
17,0.8856760773362566
18,9.285555036207964
2,1, 1, 1, 0,15,15.00,30.00,Tuesday
7,-1.1
8,1343.7650276714549
9,1.0
10,166.40516310952945
11,1.0
12,166.40516310952945
13,1343.7650276714549
14,9.297251719724472
15,7.7359249092297939
16,8.919619267844155
17,0.8360894562812291
18,9.273431318611744
2,1, 1, 1, 0,15,30.00,45.00,Tuesday
7,-1.1
8,1133.0385269845918
9,1.0
10,140.8967369711617
11,1.0
12,140.8967369711617
13,1133.0385269845918
14,9.171566496701173
15,6.5283099354777589
16,8.542832450813876
17,0.628312635230543
18,9.253602218702746
2,1, 1, 1, 0,15,45.00,60.00,Tuesday
7,-1.1
8,932.3983670638605
9,1.0
10,116.57355796743004
11,1.0
12,116.57355796743004
13,932.3983670638605
14,9.060098929229208
15,5.324361209464164
16,8.170079010798134
17,0.411762023372205
18,9.214138758055903
2,1, 1, 1, 0,16, 0.00,15.00,Tuesday
7,-1.1
8,740.0045419022674
9,1.0
10,93.14939272689483
11,1.0
12,93.14939272689483
13,740.0045419022674
14,8.95099251924103
15,4.274782552728436
16,7.83852976528425
17,0.2779057757323926
18,9.153514766973457
2,1, 1, 1, 0,16,15.00,30.00,Tuesday
7,-1.1
8,459.3961604879489
9,1.0
10,57.94047897402063
11,1.0
12,57.94047897402063
13,459.3961604879489
14,8.750419642358806
15,2.1530058946302668
16,7.329913314632449
17,0.00027960281909145124
18,9.06522302025011
2,1, 1, 1, 0,16,30.00,45.00,Tuesday
7,-1.1
8,356.18208879623128
9,1.0
10,45.38251793443488
11,1.0
12,45.38251793443488
13,356.18208879623128
14,8.66900183935186
15,1.5450707997091989
16,7.105468081390768
17,-0.04108405762815437
18,8.965504757737163
2,1, 1, 1, 0,16,45.00,60.00,Tuesday
7,-1.1
8,248.6386951552365
9,1.0
10,32.02625108222755
11,1.0
12,32.02625108222755
13,248.6386951552365
14,8.548743564326707
15,0.6849912026574213
16,6.895622313883337
17,-0.08523617971303566
18,8.867926550237016
2,1, 1, 1, 0,17, 0.00,15.00,Tuesday
7,-1.1
8,136.37797604919303
9,1.0
10,17.762198626050539
11,1.0
12,17.762198626050539
13,136.37797604919303
14,8.404430887814874
15,-0.5618693143941564
16,6.633921087265662
17,-0.23999629595721218
18,8.771362608318226
2,1, 1, 1, 0,17,15.00,30.00,Tuesday
7,-1.1
8,0.0
9,0.0
10,0.0
11,0.0
12,0.0
13,0.0
14,8.210467404542506
15,-2.3970586416117736
16,6.294682267480937
17,-0.5118264257381497
18,8.66305309044482
2,1, 1, 1, 0,17,30.00,45.00,Tuesday
7,-1.1
8,0.0
9,0.0
10,0.0
11,0.0
12,0.0
13,0.0
14,8.150756705439488
15,-2.530919234523686
16,6.207628335111508
17,-0.49305404155580848
18,8.557615964356764
2,1, 1, 1, 0,17,45.00,60.00,Tuesday
7,-1.1
8,0.0
9,0.0
10,0.0
11,0.0
12,0.0
13,0.0
14,8.075273482758208
15,-2.718289756514005
16,6.161879717415218
17,-0.4585558759798687
18,8.468783373491384
2,1, 1, 1, 0,18, 0.00,15.00,Tuesday
7,-1.25
8,0.0
9,0.0
10,0.0
11,0.0
12,0.0
13,0.0
14,8.01127135100368
15,-2.8666006453173318
16,6.069220575200859
17,-0.6000649478451123
18,8.397088381048878
2,1, 1, 1, 0,18,15.00,30.00,Tuesday
7,-1.4
8,0.0
9,0.0
10,0.0
11,0.0
12,0.0
13,0.0
14,7.952730690682495
15,-3.0190485865034537
16,5.990846948827652
17,-0.7320417734986222
18,8.337096964813604
2,1, 1, 1, 0,18,30.00,45.00,Tuesday
7,-1.5499999999999999
8,0.0
9,0.0
10,0.0
11,0.0
12,0.0
13,0.0
14,7.898446485469403
15,-3.1710893127274728
16,5.919006326128056
17,-0.8582798054458181
18,8.28334492729502
2,1, 1, 1, 0,18,45.00,60.00,Tuesday
7,-1.7
8,0.0
9,0.0
10,0.0
11,0.0
12,0.0
13,0.0
14,7.84608662845114
15,-3.3232980958364575
16,5.847616268167826
17,-0.9889612285869589
18,8.232489798421679
2,1, 1, 1, 0,19, 0.00,15.00,Tuesday
7,-1.825
8,0.0
9,0.0
10,0.0
11,0.0
12,0.0
13,0.0
14,7.817905272549969
15,-3.1815950051784007
16,5.76308722100697
17,-1.1622550874053559
18,8.186379188076306
2,1, 1, 1, 0,19,15.00,30.00,Tuesday
7,-1.9500000000000002
8,0.0
9,0.0
10,0.0
11,0.0
12,0.0
13,0.0
14,7.788532244107343
15,-3.120543482075162
16,5.6945325712193839
17,-1.320624989657631
18,8.146791584196912
2,1, 1, 1, 0,19,30.00,45.00,Tuesday
7,-2.075
8,0.0
9,0.0
10,0.0
11,0.0
12,0.0
13,0.0
14,7.754936632166662
15,-3.195907009979194
16,5.641498906228776
17,-1.4402120429942898
18,8.112353338968959
2,1, 1, 1, 0,19,45.00,60.00,Tuesday
7,-2.2
8,0.0
9,0.0
10,0.0
11,0.0
12,0.0
13,0.0
14,7.724108962433211
15,-3.1787093494105975
16,5.5774516795584649
17,-1.5912747878724077
18,8.080013198095213
2,1, 1, 1, 0,20, 0.00,15.00,Tuesday
7,-1.9250000000000003
8,0.0
9,0.0
10,0.0
11,0.0
12,0.0
13,0.0
14,7.709016074760807
15,-2.8787848262076087
16,5.613902721608497
17,-1.3885126792658867
18,8.050343306497407
2,1, 1, 1, 0,20,15.00,30.00,Tuesday
7,-1.6500000000000002
8,0.0
9,0.0
10,0.0
11,0.0
12,0.0
13,0.0
14,7.694372958106313
15,-2.58172985177857
16,5.648532272013085
17,-1.1742038671827687
18,8.023924595006854
2,1, 1, 1, 0,20,30.00,45.00,Tuesday
7,-1.375
8,0.0
9,0.0
10,0.0
11,0.0
12,0.0
13,0.0
14,7.681536962648228
15,-2.2859026598875427
16,5.684796930661719
17,-0.9575251402512777
18,8.000377345394611
2,1, 1, 1, 0,20,45.00,60.00,Tuesday
7,-1.1
8,0.0
9,0.0
10,0.0
11,0.0
12,0.0
13,0.0
14,7.670288032821583
15,-1.9912881090436765
16,5.723122473997876
17,-0.7386309235478166
18,7.978992016369275
2,1, 1, 1, 0,21, 0.00,15.00,Tuesday
7,-1.25
8,0.0
9,0.0
10,0.0
11,0.0
12,0.0
13,0.0
14,7.6191998257087649
15,-2.2672627317324007
16,5.683201610402932
17,-0.8087895243604066
18,7.953051803304792
2,1, 1, 1, 0,21,15.00,30.00,Tuesday
7,-1.4
8,0.0
9,0.0
10,0.0
11,0.0
12,0.0
13,0.0
14,7.568845175966924
15,-2.4810911104121504
16,5.628186016421864
17,-0.9029964117013378
18,7.917937919265298
2,1, 1, 1, 0,21,30.00,45.00,Tuesday
7,-1.5499999999999999
8,0.0
9,0.0
10,0.0
11,0.0
12,0.0
13,0.0
14,7.505480508134651
15,-2.8185625240861129
16,5.580519140265494
17,-0.9637569676468729
18,7.87292207868105
2,1, 1, 1, 0,21,45.00,60.00,Tuesday
7,-1.7
8,0.0
9,0.0
10,0.0
11,0.0
12,0.0
13,0.0
14,7.43684381406391
15,-3.2625796988576987
16,5.5336532450467079
17,-0.9946735508257234
18,7.820325990202928
2,1, 1, 1, 0,22, 0.00,15.00,Tuesday
7,-1.5499999999999999
8,0.0
9,0.0
10,0.0
11,0.0
12,0.0
13,0.0
14,7.434726618648852
15,-2.7843251477814126
16,5.495134551268734
17,-0.9785939068523248
18,7.773503027737154
2,1, 1, 1, 0,22,15.00,30.00,Tuesday
7,-1.4
8,0.0
9,0.0
10,0.0
11,0.0
12,0.0
13,0.0
14,7.4214717693402358
15,-2.460506619691758
16,5.491737275944615
17,-0.9243896071444624
18,7.739431672515267
2,1, 1, 1, 0,22,30.00,45.00,Tuesday
7,-1.25
8,0.0
9,0.0
10,0.0
11,0.0
12,0.0
13,0.0
14,7.409477762960477
15,-2.243193159621779
16,5.4995909595705829
17,-0.8344038685450528
18,7.715903951269044
2,1, 1, 1, 0,22,45.00,60.00,Tuesday
7,-1.1
8,0.0
9,0.0
10,0.0
11,0.0
12,0.0
13,0.0
14,7.399305428159928
15,-1.9657774951314602
16,5.505124656782414
17,-0.7562876015194888
18,7.697531439596068
2,1, 1, 1, 0,23, 0.00,15.00,Tuesday
7,-1.25
8,0.0
9,0.0
10,0.0
11,0.0
12,0.0
13,0.0
14,7.347599554217216
15,-2.2690240105200125
16,5.412220158156174
17,-1.0331829141334766
18,7.673844429171572
2,1, 1, 1, 0,23,15.00,30.00,Tuesday
7,-1.4
8,0.0
9,0.0
10,0.0
11,0.0
12,0.0
13,0.0
14,7.297962083521742
15,-2.5736998327651685
16,5.30782170729583
17,-1.3250832143920093
18,7.639910693373249
2,1, 1, 1, 0,23,30.00,45.00,Tuesday
7,-1.5499999999999999
8,0.0
9,0.0
10,0.0
11,0.0
12,0.0
13,0.0
14,7.243567621945752
15,-2.879013576839302
16,5.201385774030314
17,-1.618717168397211
18,7.597040443237636
2,1, 1, 1, 0,23,45.00,60.00,Tuesday
7,-1.7
8,0.0
9,0.0
10,0.0
11,0.0
12,0.0
13,0.0
14,7.185266172182649
15,-3.1846718976185666
16,5.090722650858652
17,-1.9146647882280377
18,7.548284876033106
2,1, 1, 1, 0,24, 0.00,15.00,Tuesday
7,-1.7
8,0.0
9,0.0
10,0.0
11,0.0
12,0.0
13,0.0
14,7.1427767086098179
15,-3.238841401223041
16,5.037227252448929
17,-1.980912446814159
18,7.4992395082627969
2,1, 1, 1, 0,24,15.00,30.00,Tuesday
7,-1.7
8,0.0
9,0.0
10,0.0
11,0.0
12,0.0
13,0.0
14,7.098230822520313
15,-3.293586527705429
16,4.988317977204815
17,-2.043532487461789
18,7.452825904443304
2,1, 1, 1, 0,24,30.00,45.00,Tuesday
7,-1.7
8,0.0
9,0.0
10,0.0
11,0.0
12,0.0
13,0.0
14,7.054816601351554
15,-3.3482238704303368
16,4.939259157824722
17,-2.1059825548214237
18,7.408957615360213
2,1, 1, 1, 0,24,45.00,60.00,Tuesday
7,-1.7
8,0.0
9,0.0
10,0.0
11,0.0
12,0.0
13,0.0
14,7.012238619586995
15,-3.4028645587427825
16,4.891144651402669
17,-2.1680915794310069
18,7.366574990603107
End of Data
 Number of Records Written=        1152
