Program Version,EnergyPlus, Version 9.5.0-de239b2e5f, YMD=2022.11.08 09:47
1,5,Environment Title[],Latitude[deg],Longitude[deg],Time Zone[],Elevation[m]
2,8,Day of Simulation[],Month[],Day of Month[],DST Indicator[1=yes 0=no],Hour[],StartMinute[],EndMinute[],DayType
3,5,Cumulative Day of Simulation[],Month[],Day of Month[],DST Indicator[1=yes 0=no],DayType  ! When Daily Report Variables Requested
4,2,Cumulative Days of Simulation[],Month[]  ! When Monthly Report Variables Requested
5,1,Cumulative Days of Simulation[] ! When Run Period Report Variables Requested
6,1,Calendar Year of Simulation[] ! When Annual Report Variables Requested
7,1,Environment,Site Outdoor Air Drybulb Temperature [C] !TimeStep
8,1,ZONE ONE,Zone Windows Total Transmitted Solar Radiation Rate [W] !TimeStep
9,1,ZN001:WALL001,Surface Outside Face Sunlit Fraction [] !TimeStep
10,1,ZN001:WALL001,Surface Outside Face Incident Solar Radiation Rate per Area [W/m2] !TimeStep
11,1,ZN001:WALL001:WIN001,Surface Outside Face Sunlit Fraction [] !TimeStep
12,1,ZN001:WALL001:WIN001,Surface Outside Face Incident Solar Radiation Rate per Area [W/m2] !TimeStep
13,1,ZN001:WALL001:WIN001,Surface Window Transmitted Solar Radiation Rate [W] !TimeStep
14,1,ZN001:WALL001,Surface Inside Face Temperature [C] !TimeStep
15,1,ZN001:WALL001,Surface Outside Face Temperature [C] !TimeStep
16,1,ZN001:WALL001:WIN001,Surface Inside Face Temperature [C] !TimeStep
17,1,ZN001:WALL001:WIN001,Surface Outside Face Temperature [C] !TimeStep
18,1,ZONE ONE,Zone Mean Air Temperature [C] !TimeStep
End of Data Dictionary
1,RUN PERIOD 1,  41.98, -87.92,  -6.00, 201.00
2,1, 1, 1, 0, 1, 0.00,15.00,Tuesday
7,-4.324999999999999
8,0.0
9,0.0
10,0.0
11,0.0
12,0.0
13,0.0
14,8.720808523483023
15,-5.8452037871273589
16,5.923222602588396
17,-3.9089068186708575
18,9.249485503678976
2,1, 1, 1, 0, 1,15.00,30.00,Tuesday
7,-6.949999999999999
8,0.0
9,0.0
10,0.0
11,0.0
12,0.0
13,0.0
14,8.53381490921025
15,-8.312120501472684
16,5.323497036996571
17,-5.996260701472124
18,9.142367568135365
2,1, 1, 1, 0, 1,30.00,45.00,Tuesday
7,-9.575
8,0.0
9,0.0
10,0.0
11,0.0
12,0.0
13,0.0
14,8.326546135317095
15,-10.78695608281087
16,4.716510559420044
17,-8.089662175800754
18,9.00415298145459
2,1, 1, 1, 0, 1,45.00,60.00,Tuesday
7,-12.2
8,0.0
9,0.0
10,0.0
11,0.0
12,0.0
13,0.0
14,8.103457750447605
15,-13.268438315655342
16,4.094180856988487
17,-10.190500696452546
18,8.844761579189644
2,1, 1, 1, 0, 2, 0.00,15.00,Tuesday
7,-12.075
8,0.0
9,0.0
10,0.0
11,0.0
12,0.0
13,0.0
14,8.025991710737318
15,-13.069030047393767
16,4.01871778469507
17,-10.027414561002388
18,8.701168938068927
2,1, 1, 1, 0, 2,15.00,30.00,Tuesday
7,-11.95
8,0.0
9,0.0
10,0.0
11,0.0
12,0.0
13,0.0
14,7.935697832963285
15,-12.892143768973242
16,3.976320813787197
17,-9.884794654098642
18,8.589719634097039
2,1, 1, 1, 0, 2,30.00,45.00,Tuesday
7,-11.825
8,0.0
9,0.0
10,0.0
11,0.0
12,0.0
13,0.0
14,7.862669394678181
15,-12.714119023863893
16,3.9399566987187315
17,-9.741698276433568
18,8.504373052979166
2,1, 1, 1, 0, 2,45.00,60.00,Tuesday
7,-11.7
8,0.0
9,0.0
10,0.0
11,0.0
12,0.0
13,0.0
14,7.800666806943515
15,-12.536186464922674
16,3.9162924725306995
17,-9.595978356429896
18,8.433870420900324
2,1, 1, 1, 0, 3, 0.00,15.00,Tuesday
7,-11.549999999999999
8,0.0
9,0.0
10,0.0
11,0.0
12,0.0
13,0.0
14,7.740312383322176
15,-12.408642617439794
16,3.9015192738941097
17,-9.443700946159368
18,8.369404663349169
2,1, 1, 1, 0, 3,15.00,30.00,Tuesday
7,-11.399999999999999
8,0.0
9,0.0
10,0.0
11,0.0
12,0.0
13,0.0
14,7.682941014128091
15,-12.282403149493565
16,3.88846279762339
17,-9.291138578823507
18,8.306823828360227
2,1, 1, 1, 0, 3,30.00,45.00,Tuesday
7,-11.25
8,0.0
9,0.0
10,0.0
11,0.0
12,0.0
13,0.0
14,7.626332168017045
15,-12.157609092993818
16,3.8770671665319584
17,-9.13827001625259
18,8.245052655372817
2,1, 1, 1, 0, 3,45.00,60.00,Tuesday
7,-11.1
8,0.0
9,0.0
10,0.0
11,0.0
12,0.0
13,0.0
14,7.570202384705626
15,-12.03431402969152
16,3.866290961110508
17,-8.985352501390367
18,8.184044054815644
2,1, 1, 1, 0, 4, 0.00,15.00,Tuesday
7,-11.1
8,0.0
9,0.0
10,0.0
11,0.0
12,0.0
13,0.0
14,7.510241306381543
15,-12.008029939639961
16,3.8036511964657508
17,-9.031558325514425
18,8.12288525353494
2,1, 1, 1, 0, 4,15.00,30.00,Tuesday
7,-11.1
8,0.0
9,0.0
10,0.0
11,0.0
12,0.0
13,0.0
14,7.450686210378418
15,-11.9827527226696
16,3.7443824521271269
17,-9.076270093461745
18,8.061210893151275
2,1, 1, 1, 0, 4,30.00,45.00,Tuesday
7,-11.1
8,0.0
9,0.0
10,0.0
11,0.0
12,0.0
13,0.0
14,7.3909280945674
15,-11.958908299090349
16,3.6854942305536158
17,-9.119857074241623
18,7.999170378047132
2,1, 1, 1, 0, 4,45.00,60.00,Tuesday
7,-11.1
8,0.0
9,0.0
10,0.0
11,0.0
12,0.0
13,0.0
14,7.331093678068047
15,-11.936368877503476
16,3.62681797482594
17,-9.162249984847563
18,7.937022142231176
2,1, 1, 1, 0, 5, 0.00,15.00,Tuesday
7,-10.975
8,0.0
9,0.0
10,0.0
11,0.0
12,0.0
13,0.0
14,7.2768518579293579
15,-11.814628072040398
16,3.6061934711142955
17,-9.077728745378636
18,7.876049871523106
2,1, 1, 1, 0, 5,15.00,30.00,Tuesday
7,-10.85
8,0.0
9,0.0
10,0.0
11,0.0
12,0.0
13,0.0
14,7.222857163745936
15,-11.692941456004748
16,3.583215731628229
17,-8.98501873524907
18,7.816747014461538
2,1, 1, 1, 0, 5,30.00,45.00,Tuesday
7,-10.725
8,0.0
9,0.0
10,0.0
11,0.0
12,0.0
13,0.0
14,7.169943599202673
15,-11.57123091551517
16,3.5605530710620316
17,-8.891451450356385
18,7.7588588464486929
2,1, 1, 1, 0, 5,45.00,60.00,Tuesday
7,-10.6
8,0.0
9,0.0
10,0.0
11,0.0
12,0.0
13,0.0
14,7.117921096862378
15,-11.449529550470406
16,3.538735499180916
17,-8.79764101662414
18,7.701987038831102
2,1, 1, 1, 0, 6, 0.00,15.00,Tuesday
7,-10.6
8,0.0
9,0.0
10,0.0
11,0.0
12,0.0
13,0.0
14,7.05915318264904
15,-11.450655769730178
16,3.488516900548859
17,-8.800570241859532
18,7.644509672088334
2,1, 1, 1, 0, 6,15.00,30.00,Tuesday
7,-10.6
8,0.0
9,0.0
10,0.0
11,0.0
12,0.0
13,0.0
14,7.0010329026203339
15,-11.451745953919291
16,3.4394346209512607
17,-8.809928383006536
18,7.585736060666277
2,1, 1, 1, 0, 6,30.00,45.00,Tuesday
7,-10.6
8,0.0
9,0.0
10,0.0
11,0.0
12,0.0
13,0.0
14,6.94239110573975
15,-11.452877640016557
16,3.3905465033747079
17,-8.819838012501237
18,7.525974569985035
2,1, 1, 1, 0, 6,45.00,60.00,Tuesday
7,-10.6
8,0.0
9,0.0
10,0.0
11,0.0
12,0.0
13,0.0
14,6.883470797689971
15,-11.454006225005842
16,3.341317451672694
17,-8.829885736828772
18,7.465752069012653
2,1, 1, 1, 0, 7, 0.00,15.00,Tuesday
7,-10.6
8,0.0
9,0.0
10,0.0
11,0.0
12,0.0
13,0.0
14,6.826412588824779
15,-11.432231392665888
16,3.2839176183933889
17,-8.866440455724615
18,7.40569936489513
2,1, 1, 1, 0, 7,15.00,30.00,Tuesday
7,-10.6
8,0.0
9,0.0
10,0.0
11,0.0
12,0.0
13,0.0
14,6.76927732506837
15,-11.411586157252856
16,3.2286257357727665
17,-8.903355926390418
18,7.346141849237952
2,1, 1, 1, 0, 7,30.00,45.00,Tuesday
7,-10.6
8,0.0
9,0.0
10,0.0
11,0.0
12,0.0
13,0.0
14,6.712454407911964
15,-11.391994923695226
16,3.1738529426679635
17,-8.93934397955178
18,7.287061913562689
2,1, 1, 1, 0, 7,45.00,60.00,Tuesday
7,-10.6
8,0.0
9,0.0
10,0.0
11,0.0
12,0.0
13,0.0
14,6.655946826447827
15,-11.373394818244993
16,3.1196312679663835
17,-8.974240012650285
18,7.22835354025569
2,1, 1, 1, 0, 8, 0.00,15.00,Tuesday
7,-10.45
8,0.0
9,0.0
10,0.0
11,0.0
12,0.0
13,0.0
14,6.599082679578126
15,-11.323210769462002
16,3.0932089537211597
17,-8.918333897866205
18,7.169765480710063
2,1, 1, 1, 0, 8,15.00,30.00,Tuesday
7,-10.3
8,208.7338449351899
9,1.0
10,22.819555959623899
11,1.0
12,22.819555959623899
13,208.7338449351899
14,6.671529001875787
15,-9.64910661002147
16,3.3547875284774024
17,-8.607792987133849
18,7.131742775408988
2,1, 1, 1, 0, 8,30.00,45.00,Tuesday
7,-10.15
8,1024.8852708527855
9,1.0
10,109.75755355442667
11,1.0
12,109.75755355442667
13,1024.8852708527855
14,7.097580492917332
15,-3.2718902375381124
16,4.4917662474789499
17,-7.5858674332226319
18,7.1715941119059949
2,1, 1, 1, 0, 8,45.00,60.00,Tuesday
7,-10.0
8,1863.643840351055
9,1.0
10,195.8764694434918
11,1.0
12,195.8764694434918
13,1863.643840351055
14,7.634565853174215
15,3.199298508373838
16,5.749229134441862
17,-6.573263995533466
18,7.297328634911678
2,1, 1, 1, 0, 9, 0.00,15.00,Tuesday
7,-9.725
8,2699.5134025324189
9,1.0
10,278.97248314719988
11,1.0
12,278.97248314719988
13,2699.5134025324189
14,8.11488376604242
15,8.381012580274831
16,7.0296942114876519
17,-5.671190347369929
18,7.483571321956549
2,1, 1, 1, 0, 9,15.00,30.00,Tuesday
7,-9.45
8,3580.6157062472495
9,1.0
10,364.91995730569456
11,1.0
12,364.91995730569456
13,3580.6157062472495
14,8.598293258955446
15,13.454527008966294
16,8.414923152419022
17,-4.754767937951101
18,7.718321209118846
2,1, 1, 1, 0, 9,30.00,45.00,Tuesday
7,-9.175
8,4163.549642508403
9,1.0
10,420.35879993239237
11,1.0
12,420.35879993239237
13,4163.549642508403
14,8.949070838848245
15,16.210956175156267
16,9.325612536006929
17,-4.182098427710798
18,7.979799907535408
2,1, 1, 1, 0, 9,45.00,60.00,Tuesday
7,-8.9
8,4768.682701601894
9,1.0
10,478.00138373643099
11,1.0
12,478.00138373643099
13,4768.682701601894
14,9.358210597420803
15,19.204927383449353
16,10.223985259304016
17,-3.59773876721124
18,8.257138299261799
2,1, 1, 1, 0,10, 0.00,15.00,Tuesday
7,-8.350000000000002
8,5386.600515389948
9,1.0
10,536.9185644770597
11,1.0
12,536.9185644770597
13,5386.600515389948
14,9.718212957117741
15,20.31841299500499
16,11.15757593441191
17,-2.9600189475934828
18,8.550813820658446
2,1, 1, 1, 0,10,15.00,30.00,Tuesday
7,-7.800000000000001
8,6025.8655337640279
9,1.0
10,598.0969199229219
11,1.0
12,598.0969199229219
13,6025.8655337640279
14,10.110670735137717
15,21.56838108581483
16,12.108013996023374
17,-2.319150476044342
18,8.689758218629575
2,1, 1, 1, 0,10,30.00,45.00,Tuesday
7,-7.25
8,6445.230805361411
9,1.0
10,637.6133352894237
11,1.0
12,637.6133352894237
13,6445.230805361411
14,10.379682294698706
15,21.62401667319143
16,12.793602431663317
17,-1.8587629659654113
18,8.958365408839466
2,1, 1, 1, 0,10,45.00,60.00,Tuesday
7,-6.7
8,6858.4190492533639
9,1.0
10,676.6412284283772
11,1.0
12,676.6412284283772
13,6858.4190492533639
14,10.640990875859658
15,21.780751147688024
16,13.419497980917527
17,-1.4032124177765582
18,9.157343502561002
2,1, 1, 1, 0,11, 0.00,15.00,Tuesday
7,-6.275
8,7264.090345511539
9,1.0
10,715.0112779846514
11,1.0
12,715.0112779846514
13,7264.090345511539
14,11.054416625259116
15,23.880420766566489
16,14.112417285898517
17,-0.7347348222535857
18,9.617261123295048
2,1, 1, 1, 0,11,15.00,30.00,Tuesday
7,-5.85
8,7660.212642902223
9,1.0
10,752.5077794605232
11,1.0
12,752.5077794605232
13,7660.212642902223
14,11.520304489862344
15,25.81764532474287
16,14.857875427107956
17,-0.07638495475316631
18,10.04765702472318
2,1, 1, 1, 0,11,30.00,45.00,Tuesday
7,-5.425
8,7542.4857248433349
9,1.0
10,742.5988714321785
11,1.0
12,742.5988714321785
13,7542.4857248433349
14,11.806751818496839
15,25.669605186561094
16,15.115935714194564
17,0.2410611033918144
18,10.4476187797698
2,1, 1, 1, 0,11,45.00,60.00,Tuesday
7,-5.0
8,7374.267688768705
9,1.0
10,727.8169025450712
11,1.0
12,727.8169025450712
13,7374.267688768705
14,12.07935909405339
15,25.441473587245669
16,15.276652988006959
17,0.5293929192570204
18,10.801237592151054
2,1, 1, 1, 0,12, 0.00,15.00,Tuesday
7,-4.575
8,7084.983635151388
9,1.0
10,700.3759009170325
11,1.0
12,700.3759009170325
13,7084.983635151388
14,12.275195338977966
15,24.699600991519995
16,15.294364178638944
17,0.7705116159636418
18,11.10507677096362
2,1, 1, 1, 0,12,15.00,30.00,Tuesday
7,-4.15
8,6870.442086248471
9,1.0
10,681.6705029034473
11,1.0
12,681.6705029034473
13,6870.442086248471
14,12.49079901591094
15,24.369953144062714
16,15.375051569398238
17,1.0724900080977023
18,11.371759916837256
2,1, 1, 1, 0,12,30.00,45.00,Tuesday
7,-3.7249999999999998
8,6031.675946405989
9,1.0
10,602.01865277251
11,1.0
12,602.01865277251
13,6031.675946405989
14,12.404045759390084
15,21.341246084097656
16,14.791692734665844
17,0.9533713007648998
18,11.577086743792919
2,1, 1, 1, 0,12,45.00,60.00,Tuesday
7,-3.3
8,4926.145512228762
9,1.0
10,493.55004396206007
11,1.0
12,493.55004396206007
13,4926.145512228762
14,12.210051469367695
15,17.164216095330969
16,13.770147147035232
17,0.6120073809726137
18,11.689078246571361
2,1, 1, 1, 0,13, 0.00,15.00,Tuesday
7,-3.0249999999999996
8,4067.4996895920914
9,1.0
10,412.335026418112
11,1.0
12,412.335026418112
13,4067.4996895920914
14,12.07634695256276
15,14.32115017653005
16,12.949438647319198
17,0.39460367853257596
18,11.726002227002925
2,1, 1, 1, 0,13,15.00,30.00,Tuesday
7,-2.75
8,2979.0690068893266
9,1.0
10,305.94037763660148
11,1.0
12,305.94037763660148
13,2979.0690068893266
14,11.743535352736206
15,10.148797825567695
16,11.761600626278039
17,-0.030471300823819548
18,11.699281700768319
2,1, 1, 1, 0,13,30.00,45.00,Tuesday
7,-2.475
8,2719.7845482312175
9,1.0
10,281.0763483922329
11,1.0
12,281.0763483922329
13,2719.7845482312175
14,11.715880509835744
15,9.637555416622272
16,11.454920611103717
17,0.11513272211863068
18,11.652610511187336
2,1, 1, 1, 0,13,45.00,60.00,Tuesday
7,-2.2
8,2465.901343207149
9,1.0
10,256.7721209415886
11,1.0
12,256.7721209415886
13,2465.901343207149
14,11.67670081583066
15,9.031472087428935
16,11.256413807043259
17,0.2888038790947576
18,11.61283928602342
2,1, 1, 1, 0,14, 0.00,15.00,Tuesday
7,-1.9250000000000003
8,2014.390603762876
9,1.0
10,210.73276284570657
11,1.0
12,210.73276284570657
13,2014.390603762876
14,11.515200013331672
15,7.485044652948449
16,10.777106920842244
17,0.258211460713369
18,11.575362163616449
2,1, 1, 1, 0,14,15.00,30.00,Tuesday
7,-1.6500000000000002
8,1789.4290913577484
9,1.0
10,189.38488290342594
11,1.0
12,189.38488290342594
13,1789.4290913577484
14,11.475468717554115
15,7.083364680598802
16,10.556280867781993
17,0.4205906322630426
18,11.540322701933026
2,1, 1, 1, 0,14,30.00,45.00,Tuesday
7,-1.375
8,1706.608939025422
9,1.0
10,179.3940297802914
11,1.0
12,179.3940297802914
13,1706.608939025422
14,11.460115641923178
15,7.207880325453566
16,10.512327933134316
17,0.6686855336060944
18,11.509551944655782
2,1, 1, 1, 0,14,45.00,60.00,Tuesday
7,-1.1
8,1622.842611868094
9,1.0
10,169.43349014176136
11,1.0
12,169.43349014176136
13,1622.842611868094
14,11.440800014780985
15,7.308776325523557
16,10.46103732784394
17,0.915211007323876
18,11.482603059013908
2,1, 1, 1, 0,15, 0.00,15.00,Tuesday
7,-1.1
8,1708.1436605917248
9,1.0
10,178.15692317953907
11,1.0
12,178.15692317953907
13,1708.1436605917248
14,11.50580251753653
15,8.128209197205353
16,10.571803401890123
17,1.0447719039442519
18,11.464025042381629
2,1, 1, 1, 0,15,15.00,30.00,Tuesday
7,-1.1
8,1604.7540571179919
9,1.0
10,166.40516310952945
11,1.0
12,166.40516310952945
13,1604.7540571179919
14,11.448890347691365
15,7.766988598150264
16,10.45338913125346
17,1.0078030371786895
18,11.447968049838499
2,1, 1, 1, 0,15,30.00,45.00,Tuesday
7,-1.1
8,1353.0997872449412
9,1.0
10,140.8967369711617
11,1.0
12,140.8967369711617
13,1353.0997872449412
14,11.304766377304289
15,6.552168168556761
16,10.11925859077121
17,0.8279774906673083
18,11.423762043342185
2,1, 1, 1, 0,15,45.00,60.00,Tuesday
7,-1.1
8,1113.490849652869
9,1.0
10,116.57355796743004
11,1.0
12,116.57355796743004
13,1113.490849652869
14,11.19737258579242
15,5.359577425736857
16,9.78055781264004
17,0.6398269512217212
18,11.37719055703505
2,1, 1, 1, 0,16, 0.00,15.00,Tuesday
7,-1.1
8,883.7298682797671
9,1.0
10,93.14939272689483
11,1.0
12,93.14939272689483
13,883.7298682797671
14,11.076608316436426
15,4.310815343847784
16,9.481287035799597
17,0.5392448780478389
18,11.309916197931502
2,1, 1, 1, 0,16,15.00,30.00,Tuesday
7,-1.1
8,548.6211035307358
9,1.0
10,57.94047897402063
11,1.0
12,57.94047897402063
13,548.6211035307358
14,10.86329830501479
15,2.192299089228372
16,9.016571680850916
17,0.3077624765255109
18,11.216891535933274
2,1, 1, 1, 0,16,30.00,45.00,Tuesday
7,-1.1
8,425.36056549903256
9,1.0
10,45.38251793443488
11,1.0
12,45.38251793443488
13,425.36056549903256
14,10.77571437669435
15,1.5880309810941316
16,8.804149435560533
17,0.29532968830500297
18,11.113386477785136
2,1, 1, 1, 0,16,45.00,60.00,Tuesday
7,-1.1
8,296.92985498961056
9,1.0
10,32.02625108222755
11,1.0
12,32.02625108222755
13,296.92985498961056
14,10.648126934269012
15,0.73220390871575
16,8.61126501417806
17,0.2832856570810236
18,11.012214850760705
2,1, 1, 1, 0,17, 0.00,15.00,Tuesday
7,-1.1
8,162.86560958172664
9,1.0
10,17.762198626050539
11,1.0
12,17.762198626050539
13,162.86560958172664
14,10.496735031027506
15,-0.5089638151268481
16,8.367011344212415
17,0.16306352097353739
18,10.911357753360463
2,1, 1, 1, 0,17,15.00,30.00,Tuesday
7,-1.1
8,0.0
9,0.0
10,0.0
11,0.0
12,0.0
13,0.0
14,10.29463415231687
15,-2.3414321416731678
16,8.044014814527316
17,-0.08753324318013256
18,10.797171774438175
2,1, 1, 1, 0,17,30.00,45.00,Tuesday
7,-1.1
8,0.0
9,0.0
10,0.0
11,0.0
12,0.0
13,0.0
14,10.22968837334009
15,-2.47248194766604
16,7.956572342358243
17,-0.04467551789798563
18,10.68564629864328
2,1, 1, 1, 0,17,45.00,60.00,Tuesday
7,-1.1
8,0.0
9,0.0
10,0.0
11,0.0
12,0.0
13,0.0
14,10.148227963794286
15,-2.6551026967164534
16,7.910901203066487
17,0.011465506951026328
18,10.59145241117682
2,1, 1, 1, 0,18, 0.00,15.00,Tuesday
7,-1.25
8,0.0
9,0.0
10,0.0
11,0.0
12,0.0
13,0.0
14,10.07835047533818
15,-2.804037838086284
16,7.814362312946457
17,-0.12878416312554465
18,10.51479525377155
2,1, 1, 1, 0,18,15.00,30.00,Tuesday
7,-1.4
8,0.0
9,0.0
10,0.0
11,0.0
12,0.0
13,0.0
14,10.014190586601546
15,-2.9565322180054398
16,7.730819621744331
17,-0.2625061361849248
18,10.449772001653182
2,1, 1, 1, 0,18,30.00,45.00,Tuesday
7,-1.5499999999999999
8,0.0
9,0.0
10,0.0
11,0.0
12,0.0
13,0.0
14,9.9542730095688
15,-3.1086952486187107
16,7.65204391194726
17,-0.39530885341787327
18,10.390716433692667
2,1, 1, 1, 0,18,45.00,60.00,Tuesday
7,-1.7
8,0.0
9,0.0
10,0.0
11,0.0
12,0.0
13,0.0
14,9.896247782525397
15,-3.2610253940168718
16,7.576149026638404
17,-0.5274588828872879
18,10.334275674473656
2,1, 1, 1, 0,19, 0.00,15.00,Tuesday
7,-1.825
8,0.0
9,0.0
10,0.0
11,0.0
12,0.0
13,0.0
14,9.860440518284959
15,-3.12665879536232
16,7.479188933228102
17,-0.7320888092824589
18,10.282150780626433
2,1, 1, 1, 0,19,15.00,30.00,Tuesday
7,-1.9500000000000002
8,0.0
9,0.0
10,0.0
11,0.0
12,0.0
13,0.0
14,9.825135719896413
15,-3.071982256285297
16,7.398362708343939
17,-0.9207297813586592
18,10.236296827212927
2,1, 1, 1, 0,19,30.00,45.00,Tuesday
7,-2.075
8,0.0
9,0.0
10,0.0
11,0.0
12,0.0
13,0.0
14,9.784907696134918
15,-3.149158208359425
16,7.3393292507474829
17,-1.049527891321759
18,10.195477033566047
2,1, 1, 1, 0,19,45.00,60.00,Tuesday
7,-2.2
8,0.0
9,0.0
10,0.0
11,0.0
12,0.0
13,0.0
14,9.746346260573434
15,-3.137536892999113
16,7.263116790389063
17,-1.2275301359646847
18,10.156446772457893
2,1, 1, 1, 0,20, 0.00,15.00,Tuesday
7,-1.9250000000000003
8,0.0
9,0.0
10,0.0
11,0.0
12,0.0
13,0.0
14,9.725439270151249
15,-2.838952444098179
16,7.292251341666997
17,-1.0319125633316162
18,10.120108459227007
2,1, 1, 1, 0,20,15.00,30.00,Tuesday
7,-1.6500000000000002
8,0.0
9,0.0
10,0.0
11,0.0
12,0.0
13,0.0
14,9.703827677916039
15,-2.543191464976464
16,7.319167791234861
17,-0.8245548047946159
18,10.087157005096902
2,1, 1, 1, 0,20,30.00,45.00,Tuesday
7,-1.375
8,0.0
9,0.0
10,0.0
11,0.0
12,0.0
13,0.0
14,9.684197972287855
15,-2.2485438351216735
16,7.347436937681778
17,-0.6147698512236275
18,10.057133700316343
2,1, 1, 1, 0,20,45.00,60.00,Tuesday
7,-1.1
8,0.0
9,0.0
10,0.0
11,0.0
12,0.0
13,0.0
14,9.666194447261587
15,-1.9550543580190514
16,7.377867775191817
17,-0.40259961640265376
18,10.029259429271632
2,1, 1, 1, 0,21, 0.00,15.00,Tuesday
7,-1.25
8,0.0
9,0.0
10,0.0
11,0.0
12,0.0
13,0.0
14,9.609843242143585
15,-2.2253810588810829
16,7.341217414256846
17,-0.44594807780367776
18,9.996831450918558
2,1, 1, 1, 0,21,15.00,30.00,Tuesday
7,-1.4
8,0.0
9,0.0
10,0.0
11,0.0
12,0.0
13,0.0
14,9.554267915930242
15,-2.4361673258803346
16,7.284772281688447
17,-0.5260424741053384
18,9.95531125918873
2,1, 1, 1, 0,21,30.00,45.00,Tuesday
7,-1.5499999999999999
8,0.0
9,0.0
10,0.0
11,0.0
12,0.0
13,0.0
14,9.486129072227506
15,-2.7660490741019028
16,7.241376418868526
17,-0.5536909128418301
18,9.90417892636546
2,1, 1, 1, 0,21,45.00,60.00,Tuesday
7,-1.7
8,0.0
9,0.0
10,0.0
11,0.0
12,0.0
13,0.0
14,9.412753159373029
15,-3.201231293857154
16,7.198612534841459
17,-0.5481727662205458
18,9.845855813114085
2,1, 1, 1, 0,22, 0.00,15.00,Tuesday
7,-1.5499999999999999
8,0.0
9,0.0
10,0.0
11,0.0
12,0.0
13,0.0
14,9.402447749619155
15,-2.7333103333467045
16,7.144433532437461
17,-0.5691886007886637
18,9.793291115503573
2,1, 1, 1, 0,22,15.00,30.00,Tuesday
7,-1.4
8,0.0
9,0.0
10,0.0
11,0.0
12,0.0
13,0.0
14,9.382869077448817
15,-2.416425388886851
16,7.129147414807221
17,-0.554676801357914
18,9.753397147091409
2,1, 1, 1, 0,22,30.00,45.00,Tuesday
7,-1.25
8,0.0
9,0.0
10,0.0
11,0.0
12,0.0
13,0.0
14,9.36299229073692
15,-2.2022805622299086
16,7.1259139360930139
17,-0.47568697269781526
18,9.723702934484312
2,1, 1, 1, 0,22,45.00,60.00,Tuesday
7,-1.1
8,0.0
9,0.0
10,0.0
11,0.0
12,0.0
13,0.0
14,9.346928595060789
15,-1.9303894169452363
16,7.117037026399487
17,-0.42725141536016056
18,9.698878777234399
2,1, 1, 1, 0,23, 0.00,15.00,Tuesday
7,-1.25
8,0.0
9,0.0
10,0.0
11,0.0
12,0.0
13,0.0
14,9.289656680644584
15,-2.2335942804135078
16,7.021377440450976
17,-0.706207473923314
18,9.66853830109004
2,1, 1, 1, 0,23,15.00,30.00,Tuesday
7,-1.4
8,0.0
9,0.0
10,0.0
11,0.0
12,0.0
13,0.0
14,9.234547708712105
15,-2.5383211444362558
16,6.913734195488871
17,-0.9970694734563494
18,9.62793676200589
2,1, 1, 1, 0,23,30.00,45.00,Tuesday
7,-1.5499999999999999
8,0.0
9,0.0
10,0.0
11,0.0
12,0.0
13,0.0
14,9.174534100353542
15,-2.843698568116094
16,6.8040361275159288
17,-1.2893031711155346
18,9.578571835761889
2,1, 1, 1, 0,23,45.00,60.00,Tuesday
7,-1.7
8,0.0
9,0.0
10,0.0
11,0.0
12,0.0
13,0.0
14,9.110631662321586
15,-3.1494205715916148
16,6.690170566068048
17,-1.5833603875484528
18,9.523568648019161
2,1, 1, 1, 0,24, 0.00,15.00,Tuesday
7,-1.7
8,0.0
9,0.0
10,0.0
11,0.0
12,0.0
13,0.0
14,9.062165048166563
15,-3.203744193176176
16,6.631775932606274
17,-1.650950589502429
18,9.46853159478319
2,1, 1, 1, 0,24,15.00,30.00,Tuesday
7,-1.7
8,0.0
9,0.0
10,0.0
11,0.0
12,0.0
13,0.0
14,9.011744910424918
15,-3.258588386672708
16,6.577771548516353
17,-1.7152976574117247
18,9.416286752523753
2,1, 1, 1, 0,24,30.00,45.00,Tuesday
7,-1.7
8,0.0
9,0.0
10,0.0
11,0.0
12,0.0
13,0.0
14,8.962553062172134
15,-3.3133255926894407
16,6.523609304318086
17,-1.7798152541679429
18,9.366633560382997
2,1, 1, 1, 0,24,45.00,60.00,Tuesday
7,-1.7
8,0.0
9,0.0
10,0.0
11,0.0
12,0.0
13,0.0
14,8.914238808089002
15,-3.368067604942532
16,6.470544991574457
17,-1.8436524148602303
18,9.318450630686638
End of Data
 Number of Records Written=        1152
