Program Version,EnergyPlus, Version 9.5.0-de239b2e5f, YMD=2022.11.08 09:47
1,5,Environment Title[],Latitude[deg],Longitude[deg],Time Zone[],Elevation[m]
2,8,Day of Simulation[],Month[],Day of Month[],DST Indicator[1=yes 0=no],Hour[],StartMinute[],EndMinute[],DayType
3,5,Cumulative Day of Simulation[],Month[],Day of Month[],DST Indicator[1=yes 0=no],DayType  ! When Daily Report Variables Requested
4,2,Cumulative Days of Simulation[],Month[]  ! When Monthly Report Variables Requested
5,1,Cumulative Days of Simulation[] ! When Run Period Report Variables Requested
6,1,Calendar Year of Simulation[] ! When Annual Report Variables Requested
7,1,Environment,Site Outdoor Air Drybulb Temperature [C] !TimeStep
8,1,ZONE ONE,Zone Windows Total Transmitted Solar Radiation Rate [W] !TimeStep
9,1,ZN001:WALL001,Surface Outside Face Sunlit Fraction [] !TimeStep
10,1,ZN001:WALL001,Surface Outside Face Incident Solar Radiation Rate per Area [W/m2] !TimeStep
11,1,ZN001:WALL001:WIN001,Surface Outside Face Sunlit Fraction [] !TimeStep
12,1,ZN001:WALL001:WIN001,Surface Outside Face Incident Solar Radiation Rate per Area [W/m2] !TimeStep
13,1,ZN001:WALL001:WIN001,Surface Window Transmitted Solar Radiation Rate [W] !TimeStep
14,1,ZN001:WALL001,Surface Inside Face Temperature [C] !TimeStep
15,1,ZN001:WALL001,Surface Outside Face Temperature [C] !TimeStep
16,1,ZN001:WALL001:WIN001,Surface Inside Face Temperature [C] !TimeStep
17,1,ZN001:WALL001:WIN001,Surface Outside Face Temperature [C] !TimeStep
18,1,ZONE ONE,Zone Mean Air Temperature [C] !TimeStep
End of Data Dictionary
1,RUN PERIOD 1,  41.98, -87.92,  -6.00, 201.00
2,1, 1, 1, 0, 1, 0.00,15.00,Tuesday
7,-4.324999999999999
8,0.0
9,0.0
10,0.0
11,0.0
12,0.0
13,0.0
14,7.9634851777946189
15,-5.858966342884379
16,5.291673465313352
17,-4.036459863165248
18,8.47404551019887
2,1, 1, 1, 0, 1,15.00,30.00,Tuesday
7,-6.949999999999999
8,0.0
9,0.0
10,0.0
11,0.0
12,0.0
13,0.0
14,7.777853513631038
15,-8.326025223782944
16,4.69061912221008
17,-6.123903182139088
18,8.369353118953532
2,1, 1, 1, 0, 1,30.00,45.00,Tuesday
7,-9.575
8,0.0
9,0.0
10,0.0
11,0.0
12,0.0
13,0.0
14,7.572017112306615
15,-10.80101359807834
16,4.082619879133631
17,-8.21746769093221
18,8.233376477447191
2,1, 1, 1, 0, 1,45.00,60.00,Tuesday
7,-12.2
8,0.0
9,0.0
10,0.0
11,0.0
12,0.0
13,0.0
14,7.350344182909149
15,-13.282641457799203
16,3.459416400421958
17,-10.318530144092279
18,8.07598620774668
2,1, 1, 1, 0, 2, 0.00,15.00,Tuesday
7,-12.075
8,0.0
9,0.0
10,0.0
11,0.0
12,0.0
13,0.0
14,7.275250824642352
15,-13.083338869917413
16,3.385630468642944
17,-10.156819279880324
18,7.93418275860009
2,1, 1, 1, 0, 2,15.00,30.00,Tuesday
7,-11.95
8,0.0
9,0.0
10,0.0
11,0.0
12,0.0
13,0.0
14,7.187138925641621
15,-12.906404746932042
16,3.3454552361031348
17,-10.013631801568977
18,7.824474383495161
2,1, 1, 1, 0, 2,30.00,45.00,Tuesday
7,-11.825
8,0.0
9,0.0
10,0.0
11,0.0
12,0.0
13,0.0
14,7.116275943360485
15,-12.72832624441934
16,3.3112144842789918
17,-9.869988967805682
18,7.740982520444899
2,1, 1, 1, 0, 2,45.00,60.00,Tuesday
7,-11.7
8,0.0
9,0.0
10,0.0
11,0.0
12,0.0
13,0.0
14,7.05648349718892
15,-12.550336612407259
16,3.289674672150568
17,-9.723716424430336
18,7.672506786848298
2,1, 1, 1, 0, 3, 0.00,15.00,Tuesday
7,-11.549999999999999
8,0.0
9,0.0
10,0.0
11,0.0
12,0.0
13,0.0
14,6.998343422117564
15,-12.423131612770469
16,3.276549690938225
17,-9.572905005079292
18,7.610205554395532
2,1, 1, 1, 0, 3,15.00,30.00,Tuesday
7,-11.399999999999999
8,0.0
9,0.0
10,0.0
11,0.0
12,0.0
13,0.0
14,6.943237279209793
15,-12.297246342827887
16,3.265193238417851
17,-9.42183922135439
18,7.549867602068408
2,1, 1, 1, 0, 3,30.00,45.00,Tuesday
7,-11.25
8,0.0
9,0.0
10,0.0
11,0.0
12,0.0
13,0.0
14,6.888916319443898
15,-12.172824781923702
16,3.255521376068316
17,-9.270490355212019
18,7.490372683951615
2,1, 1, 1, 0, 3,45.00,60.00,Tuesday
7,-11.1
8,0.0
9,0.0
10,0.0
11,0.0
12,0.0
13,0.0
14,6.835078366885735
15,-12.049921320686467
16,3.246473702311846
17,-9.11911749618588
18,7.431650396646841
2,1, 1, 1, 0, 4, 0.00,15.00,Tuesday
7,-11.1
8,0.0
9,0.0
10,0.0
11,0.0
12,0.0
13,0.0
14,6.7774407016443549
15,-12.023143730618207
16,3.1863978576360525
17,-9.162849874445329
18,7.372803008583705
2,1, 1, 1, 0, 4,15.00,30.00,Tuesday
7,-11.1
8,0.0
9,0.0
10,0.0
11,0.0
12,0.0
13,0.0
14,6.720205738414239
15,-11.997393500979884
16,3.129576645091447
17,-9.205239242137111
18,7.313465104065831
2,1, 1, 1, 0, 4,30.00,45.00,Tuesday
7,-11.1
8,0.0
9,0.0
10,0.0
11,0.0
12,0.0
13,0.0
14,6.6627746325440049
15,-11.973099595724025
16,3.073133436442845
17,-9.246546152375402
18,7.253773737779333
2,1, 1, 1, 0, 4,45.00,60.00,Tuesday
7,-11.1
8,0.0
9,0.0
10,0.0
11,0.0
12,0.0
13,0.0
14,6.6052670054903299
15,-11.950133416628426
16,3.0168972422160325
17,-9.286702015493689
18,7.193975910263333
2,1, 1, 1, 0, 5, 0.00,15.00,Tuesday
7,-10.975
8,0.0
9,0.0
10,0.0
11,0.0
12,0.0
13,0.0
14,6.553358736621882
15,-11.828337736621155
16,2.998363118405905
17,-9.201725249117886
18,7.135336696728597
2,1, 1, 1, 0, 5,15.00,30.00,Tuesday
7,-10.85
8,0.0
9,0.0
10,0.0
11,0.0
12,0.0
13,0.0
14,6.501688588642416
15,-11.70660035103364
16,2.977531166122958
17,-9.108600915833279
18,7.078348560625891
2,1, 1, 1, 0, 5,30.00,45.00,Tuesday
7,-10.725
8,0.0
9,0.0
10,0.0
11,0.0
12,0.0
13,0.0
14,6.451085357827045
15,-11.584839391561252
16,2.957005405349946
17,-9.014621997907455
18,7.022764358989035
2,1, 1, 1, 0, 5,45.00,60.00,Tuesday
7,-10.6
8,0.0
9,0.0
10,0.0
11,0.0
12,0.0
13,0.0
14,6.401363883859188
15,-11.463087687670324
16,2.937313191428757
17,-8.92040179810084
18,6.968191242145665
2,1, 1, 1, 0, 6, 0.00,15.00,Tuesday
7,-10.6
8,0.0
9,0.0
10,0.0
11,0.0
12,0.0
13,0.0
14,6.344836808060274
15,-11.464176156436132
16,2.8890773582825775
17,-8.922890676762279
18,6.913012086805108
2,1, 1, 1, 0, 6,15.00,30.00,Tuesday
7,-10.6
8,0.0
9,0.0
10,0.0
11,0.0
12,0.0
13,0.0
14,6.288953823606718
15,-11.46522398701582
16,2.841954946896692
17,-8.931865894894714
18,6.856531216848522
2,1, 1, 1, 0, 6,30.00,45.00,Tuesday
7,-10.6
8,0.0
9,0.0
10,0.0
11,0.0
12,0.0
13,0.0
14,6.232545115241534
15,-11.466313489466695
16,2.7950241411153344
17,-8.941401320800083
18,6.799049964152441
2,1, 1, 1, 0, 6,45.00,60.00,Tuesday
7,-10.6
8,0.0
9,0.0
10,0.0
11,0.0
12,0.0
13,0.0
14,6.1758491403641939
15,-11.467400173579506
16,2.747746753015008
17,-8.951077255345809
18,6.741092353406618
2,1, 1, 1, 0, 7, 0.00,15.00,Tuesday
7,-10.6
8,0.0
9,0.0
10,0.0
11,0.0
12,0.0
13,0.0
14,6.121045833550244
15,-11.445231511051496
16,2.6927610057552444
17,-8.985581405127164
18,6.683299233882341
2,1, 1, 1, 0, 7,15.00,30.00,Tuesday
7,-10.6
8,0.0
9,0.0
10,0.0
11,0.0
12,0.0
13,0.0
14,6.066154747969332
15,-11.424212681219287
16,2.6398195320967945
17,-9.02040080970761
18,6.62600142816877
2,1, 1, 1, 0, 7,30.00,45.00,Tuesday
7,-10.6
8,0.0
9,0.0
10,0.0
11,0.0
12,0.0
13,0.0
14,6.011571109555458
15,-11.404265960843512
16,2.587376678098849
17,-9.054333547712873
18,6.569181332145614
2,1, 1, 1, 0, 7,45.00,60.00,Tuesday
7,-10.6
8,0.0
9,0.0
10,0.0
11,0.0
12,0.0
13,0.0
14,5.957298834760055
15,-11.385327499410375
16,2.5354702006544587
17,-9.087222306567867
18,6.512730998003722
2,1, 1, 1, 0, 8, 0.00,15.00,Tuesday
7,-10.45
8,0.0
9,0.0
10,0.0
11,0.0
12,0.0
13,0.0
14,5.902612812978975
15,-11.335406713137575
16,2.510501827199164
17,-9.032566347472198
18,6.45637941572706
2,1, 1, 1, 0, 8,15.00,30.00,Tuesday
7,-10.3
8,195.09020988846408
9,1.0
10,22.819555959623899
11,1.0
12,22.819555959623899
13,195.09020988846408
14,5.974895364618562
15,-9.661432658133699
16,2.784134943095637
17,-8.715630203650335
18,6.419976838618065
2,1, 1, 1, 0, 8,30.00,45.00,Tuesday
7,-10.15
8,957.8948860178666
9,1.0
10,109.75755355442667
11,1.0
12,109.75755355442667
13,957.8948860178666
14,6.394176970313802
15,-3.28600023914661
16,3.965314830431396
17,-7.6615600973011059
18,6.459103607301081
2,1, 1, 1, 0, 8,45.00,60.00,Tuesday
7,-10.0
8,1741.8290171595064
9,1.0
10,195.8764694434918
11,1.0
12,195.8764694434918
13,1741.8290171595064
14,6.923459886321073
15,3.187971560874136
16,5.271109117959668
17,-6.614400724928885
18,6.58164363529701
2,1, 1, 1, 0, 9, 0.00,15.00,Tuesday
7,-9.725
8,2523.062977449266
9,1.0
10,278.97248314719988
11,1.0
12,278.97248314719988
13,2523.062977449266
14,7.389504435955125
15,8.368730755945759
16,6.62438482415871
17,-5.671798430885701
18,6.762707693809068
2,1, 1, 1, 0, 9,15.00,30.00,Tuesday
7,-9.45
8,3346.5730958879555
9,1.0
10,364.91995730569456
11,1.0
12,364.91995730569456
13,3346.5730958879555
14,7.8613874626125119
15,13.443240352275577
16,8.01931810811584
17,-4.719407355368958
18,6.991129694452319
2,1, 1, 1, 0, 9,30.00,45.00,Tuesday
7,-9.175
8,3891.4042611999536
9,1.0
10,420.35879993239237
11,1.0
12,420.35879993239237
13,3891.4042611999536
14,8.201982296286314
15,16.19997695324779
16,8.947376985636879
17,-4.134048463935301
18,7.245817632377478
2,1, 1, 1, 0, 9,45.00,60.00,Tuesday
7,-8.9
8,4456.98353055828
9,1.0
10,478.00138373643099
11,1.0
12,478.00138373643099
13,4456.98353055828
14,8.599659194052063
15,19.194130524032397
16,9.864214689959909
17,-3.5290956237706156
18,7.516050898836189
2,1, 1, 1, 0,10, 0.00,15.00,Tuesday
7,-8.350000000000002
8,5034.511894600071
9,1.0
10,536.9185644770597
11,1.0
12,536.9185644770597
13,5034.511894600071
14,8.947176683737237
15,20.308378498281085
16,10.814611714949479
17,-2.875647446376888
18,7.802117453694367
2,1, 1, 1, 0,10,15.00,30.00,Tuesday
7,-7.800000000000001
8,5631.992129046852
9,1.0
10,598.0969199229219
11,1.0
12,598.0969199229219
13,5631.992129046852
14,9.326196237957963
15,21.55890615446264
16,11.781827978102968
17,-2.220425758921465
18,7.93631204397418
2,1, 1, 1, 0,10,30.00,45.00,Tuesday
7,-7.25
8,6023.946097418806
9,1.0
10,637.6133352894237
11,1.0
12,637.6133352894237
13,6023.946097418806
14,9.583655059175476
15,21.61508285630129
16,12.474412440580807
17,-1.7537649251666495
18,8.196091285464022
2,1, 1, 1, 0,10,45.00,60.00,Tuesday
7,-6.7
8,6410.126792022681
9,1.0
10,676.6412284283772
11,1.0
12,676.6412284283772
13,6410.126792022681
14,9.833728184315964
15,21.77227016796302
16,13.108242479063734
17,-1.2925051425852985
18,8.38795596941825
2,1, 1, 1, 0,11, 0.00,15.00,Tuesday
7,-6.275
8,6789.281875173838
9,1.0
10,715.0112779846514
11,1.0
12,715.0112779846514
13,6789.281875173838
14,10.233555890561642
15,23.871767108562467
16,13.809474867569634
17,-0.6129606761049899
18,8.834490854757274
2,1, 1, 1, 0,11,15.00,30.00,Tuesday
7,-5.85
8,7159.512118206996
9,1.0
10,752.5077794605232
11,1.0
12,752.5077794605232
13,7159.512118206996
14,10.684692760785028
15,25.80891550642731
16,14.562006366198944
17,0.055944941041161658
18,9.253881787766878
2,1, 1, 1, 0,11,30.00,45.00,Tuesday
7,-5.425
8,7049.480277608347
9,1.0
10,742.5988714321785
11,1.0
12,742.5988714321785
13,7049.480277608347
14,10.960549791738672
15,25.660849081880735
16,14.804399124868042
17,0.3683467027831284
18,9.64049131430302
2,1, 1, 1, 0,11,45.00,60.00,Tuesday
7,-5.0
8,6892.257609789996
9,1.0
10,727.8169025450712
11,1.0
12,727.8169025450712
13,6892.257609789996
14,11.221738023013055
15,25.432556792894095
16,14.948522509967347
17,0.6504104985203867
18,9.980673196704565
2,1, 1, 1, 0,12, 0.00,15.00,Tuesday
7,-4.575
8,6621.882258083062
9,1.0
10,700.3759009170325
11,1.0
12,700.3759009170325
13,6621.882258083062
14,11.40824848753716
15,24.690576101289385
16,14.94514346941287
17,0.8820395593322701
18,10.27269128791408
2,1, 1, 1, 0,12,15.00,30.00,Tuesday
7,-4.15
8,6421.363957765188
9,1.0
10,681.6705029034473
11,1.0
12,681.6705029034473
13,6421.363957765188
14,11.581992660409148
15,24.35994424088373
16,14.990773221747418
17,1.1734766166367763
18,10.528072227238228
2,1, 1, 1, 0,12,30.00,45.00,Tuesday
7,-3.7249999999999998
8,5637.4227511056319
9,1.0
10,602.01865277251
11,1.0
12,602.01865277251
13,5637.4227511056319
14,11.527944117876434
15,21.332737308542226
16,14.370387714097774
17,1.0328237357948638
18,10.722308170547079
2,1, 1, 1, 0,12,45.00,60.00,Tuesday
7,-3.3
8,4604.153975221845
9,1.0
10,493.55004396206007
11,1.0
12,493.55004396206007
13,4604.153975221845
14,11.332206442404449
15,17.154811591271156
16,13.312689948926959
17,0.6584211661411246
18,10.826565150844776
2,1, 1, 1, 0,13, 0.00,15.00,Tuesday
7,-3.0249999999999996
8,3801.6324971641558
9,1.0
10,412.335026418112
11,1.0
12,412.335026418112
13,3801.6324971641558
14,11.198325153978053
15,14.311638271998003
16,12.456168169778266
17,0.4150213788736892
18,10.858646887987803
2,1, 1, 1, 0,13,15.00,30.00,Tuesday
7,-2.75
8,2784.3457682033997
9,1.0
10,305.94037763660148
11,1.0
12,305.94037763660148
13,2784.3457682033997
14,10.873142402463744
15,10.139152602519936
16,11.239027809467246
17,-0.03987291300683182
18,10.829278386967893
2,1, 1, 1, 0,13,30.00,45.00,Tuesday
7,-2.475
8,2542.009124253083
9,1.0
10,281.0763483922329
11,1.0
12,281.0763483922329
13,2542.009124253083
14,10.845627345366563
15,9.62764961206336
16,10.930311861893302
17,0.09806812333772541
18,10.780968314610833
2,1, 1, 1, 0,13,45.00,60.00,Tuesday
7,-2.2
8,2304.7206875326639
9,1.0
10,256.7721209415886
11,1.0
12,256.7721209415886
13,2304.7206875326639
14,10.807187800609276
15,9.02145175901385
16,10.704673235068072
17,0.26090516315980497
18,10.740193456166088
2,1, 1, 1, 0,14, 0.00,15.00,Tuesday
7,-1.9250000000000003
8,1882.7224008991782
9,1.0
10,210.73276284570657
11,1.0
12,210.73276284570657
13,1882.7224008991782
14,10.650523434811765
15,7.474833252646865
16,10.184271000423906
17,0.22273546215842544
18,10.702958321897082
2,1, 1, 1, 0,14,15.00,30.00,Tuesday
7,-1.6500000000000002
8,1672.4652253770783
9,1.0
10,189.38488290342594
11,1.0
12,189.38488290342594
13,1672.4652253770783
14,10.612089539295442
15,7.072437542933276
16,9.95150251974735
17,0.36628870701986218
18,10.668883431105263
2,1, 1, 1, 0,14,30.00,45.00,Tuesday
7,-1.375
8,1595.0585120262159
9,1.0
10,179.3940297802914
11,1.0
12,179.3940297802914
13,1595.0585120262159
14,10.59878147524703
15,7.196645628107949
16,9.90463190499429
17,0.6104460595706769
18,10.63943638298142
2,1, 1, 1, 0,14,45.00,60.00,Tuesday
7,-1.1
8,1516.7674694221824
9,1.0
10,169.43349014176136
11,1.0
12,169.43349014176136
13,1516.7674694221824
14,10.581574055287835
15,7.297140576464523
16,9.85050715578302
17,0.8532250647875799
18,10.614089449010324
2,1, 1, 1, 0,15, 0.00,15.00,Tuesday
7,-1.1
8,1596.4929183753193
9,1.0
10,178.15692317953907
11,1.0
12,178.15692317953907
13,1596.4929183753193
14,10.64596464991178
15,8.11638880856323
16,9.968946432536825
17,0.9848477227122316
18,10.597065742375188
2,1, 1, 1, 0,15,15.00,30.00,Tuesday
7,-1.1
8,1499.8612511521965
9,1.0
10,166.40516310952945
11,1.0
12,166.40516310952945
13,1499.8612511521965
14,10.59107116524344
15,7.754644212714938
16,9.84298584413716
17,0.9428105597521608
18,10.582723718872746
2,1, 1, 1, 0,15,30.00,45.00,Tuesday
7,-1.1
8,1264.6560579356138
9,1.0
10,140.8967369711617
11,1.0
12,140.8967369711617
13,1264.6560579356138
14,10.454557711580082
15,6.54505144471668
16,9.492352683319496
17,0.75150993480122
18,10.560955060253331
2,1, 1, 1, 0,15,45.00,60.00,Tuesday
7,-1.1
8,1040.7088684395426
9,1.0
10,116.57355796743004
11,1.0
12,116.57355796743004
13,1040.7088684395426
14,10.345827099042092
15,5.345410610727676
16,9.13941669752711
17,0.5515523157950497
18,10.517415167508993
2,1, 1, 1, 0,16, 0.00,15.00,Tuesday
7,-1.1
8,825.9659354277302
9,1.0
10,93.14939272689483
11,1.0
12,93.14939272689483
13,825.9659354277302
14,10.230395475729294
15,4.2964866139850479
16,8.82793075708048
17,0.4375434861140093
18,10.451481865956824
2,1, 1, 1, 0,16,15.00,30.00,Tuesday
7,-1.1
8,512.7611493490365
9,1.0
10,57.94047897402063
11,1.0
12,57.94047897402063
13,512.7611493490365
14,10.021046110510895
15,2.1765953264140758
16,8.344915178017516
17,0.1869096007123403
18,10.35935681559925
2,1, 1, 1, 0,16,30.00,45.00,Tuesday
7,-1.1
8,397.55738714641776
9,1.0
10,45.38251793443488
11,1.0
12,45.38251793443488
13,397.55738714641776
14,9.935650326953434
15,1.5708972681359455
16,8.126895606459812
17,0.1626587535449744
18,10.256922436793582
2,1, 1, 1, 0,16,45.00,60.00,Tuesday
7,-1.1
8,277.521394530192
9,1.0
10,32.02625108222755
11,1.0
12,32.02625108222755
13,277.521394530192
14,9.810816822361505
15,0.7133751742408983
16,7.926754649850977
17,0.13761152635470354
18,10.157085082956698
2,1, 1, 1, 0,17, 0.00,15.00,Tuesday
7,-1.1
8,152.22009620323514
9,1.0
10,17.762198626050539
11,1.0
12,17.762198626050539
13,152.22009620323514
14,9.662222889848956
15,-0.5300508926433077
16,7.675172128101053
17,0.0034866677037825868
18,10.057969501197292
2,1, 1, 1, 0,17,15.00,30.00,Tuesday
7,-1.1
8,0.0
9,0.0
10,0.0
11,0.0
12,0.0
13,0.0
14,9.463392313944896
15,-2.363607439199216
16,7.34528820890921
17,-0.25590538375899998
18,9.94617522028181
2,1, 1, 1, 0,17,30.00,45.00,Tuesday
7,-1.1
8,0.0
9,0.0
10,0.0
11,0.0
12,0.0
13,0.0
14,9.40055481391749
15,-2.4958068701698465
16,7.258198337653994
17,-0.22205216808936258
18,9.837120245177183
2,1, 1, 1, 0,17,45.00,60.00,Tuesday
7,-1.1
8,0.0
9,0.0
10,0.0
11,0.0
12,0.0
13,0.0
14,9.321495258705112
15,-2.6803313035552076
16,7.2126965257645569
17,-0.17384694355621378
18,9.745103470502786
2,1, 1, 1, 0,18, 0.00,15.00,Tuesday
7,-1.25
8,0.0
9,0.0
10,0.0
11,0.0
12,0.0
13,0.0
14,9.253956360421198
15,-2.8290167251144857
16,7.116634831576562
17,-0.31727636817799978
18,9.670476628345
2,1, 1, 1, 0,18,15.00,30.00,Tuesday
7,-1.4
8,0.0
9,0.0
10,0.0
11,0.0
12,0.0
13,0.0
14,9.19209110449795
15,-2.981491952973576
16,7.037188035751001
17,-0.4457134110451193
18,9.607489227201472
2,1, 1, 1, 0,18,30.00,45.00,Tuesday
7,-1.5499999999999999
8,0.0
9,0.0
10,0.0
11,0.0
12,0.0
13,0.0
14,9.134413198782639
15,-3.1336056033706245
16,6.9601722457113059
17,-0.5780445582674929
18,9.550569979772737
2,1, 1, 1, 0,18,45.00,60.00,Tuesday
7,-1.7
8,0.0
9,0.0
10,0.0
11,0.0
12,0.0
13,0.0
14,9.078660287436624
15,-3.2858873698293369
16,6.88609775557444
17,-0.7096217107825851
18,9.49637494014672
2,1, 1, 1, 0,19, 0.00,15.00,Tuesday
7,-1.825
8,0.0
9,0.0
10,0.0
11,0.0
12,0.0
13,0.0
14,9.046472008993256
15,-3.1485810034709256
16,6.793924805025256
17,-0.9024670218637994
18,9.446737714082321
2,1, 1, 1, 0,19,15.00,30.00,Tuesday
7,-1.9500000000000002
8,0.0
9,0.0
10,0.0
11,0.0
12,0.0
13,0.0
14,9.012961025085467
15,-3.0913803364805219
16,6.718064477252653
17,-1.0794567214094287
18,9.403438879579177
2,1, 1, 1, 0,19,30.00,45.00,Tuesday
7,-2.075
8,0.0
9,0.0
10,0.0
11,0.0
12,0.0
13,0.0
14,8.975443638251056
15,-3.167799381568373
16,6.661262637665288
17,-1.2047543526090295
18,9.365163243254769
2,1, 1, 1, 0,19,45.00,60.00,Tuesday
7,-2.2
8,0.0
9,0.0
10,0.0
11,0.0
12,0.0
13,0.0
14,8.940556579457994
15,-3.1539555779068637
16,6.5898416568024349
17,-1.3722364392076543
18,9.328854109226978
2,1, 1, 1, 0,20, 0.00,15.00,Tuesday
7,-1.9250000000000003
8,0.0
9,0.0
10,0.0
11,0.0
12,0.0
13,0.0
14,8.921368621729754
15,-2.8548596540897774
16,6.622087706282571
17,-1.1737564545558144
18,9.295203034026557
2,1, 1, 1, 0,20,15.00,30.00,Tuesday
7,-1.6500000000000002
8,0.0
9,0.0
10,0.0
11,0.0
12,0.0
13,0.0
14,8.902587519152336
15,-2.5585563598270029
16,6.6518950109769439
17,-0.9636997152817912
18,9.264839731316421
2,1, 1, 1, 0,20,30.00,45.00,Tuesday
7,-1.375
8,0.0
9,0.0
10,0.0
11,0.0
12,0.0
13,0.0
14,8.885652850184677
15,-2.2634411202164448
16,6.683343692633798
17,-0.7511927848970004
18,9.237370453735885
2,1, 1, 1, 0,20,45.00,60.00,Tuesday
7,-1.1
8,0.0
9,0.0
10,0.0
11,0.0
12,0.0
13,0.0
14,8.870328285582607
15,-1.9695030644082415
16,6.716893501380923
17,-0.5363735016910596
18,9.212063379837185
2,1, 1, 1, 0,21, 0.00,15.00,Tuesday
7,-1.25
8,0.0
9,0.0
10,0.0
11,0.0
12,0.0
13,0.0
14,8.816083364059296
15,-2.242080729711591
16,6.679017046789227
17,-0.5902591870156471
18,9.18220860322347
2,1, 1, 1, 0,21,15.00,30.00,Tuesday
7,-1.4
8,0.0
9,0.0
10,0.0
11,0.0
12,0.0
13,0.0
14,8.762604266853414
15,-2.4540819378400045
16,6.623202391841346
17,-0.6758417480352819
18,9.143232035733384
2,1, 1, 1, 0,21,30.00,45.00,Tuesday
7,-1.5499999999999999
8,0.0
9,0.0
10,0.0
11,0.0
12,0.0
13,0.0
14,8.696385274288124
15,-2.7869967596104896
16,6.578257602298436
17,-0.7162688159650656
18,9.094530649382229
2,1, 1, 1, 0,21,45.00,60.00,Tuesday
7,-1.7
8,0.0
9,0.0
10,0.0
11,0.0
12,0.0
13,0.0
14,8.624913434326228
15,-3.2257209561398647
16,6.534080219149132
17,-0.724435178109843
18,9.038489269775515
2,1, 1, 1, 0,22, 0.00,15.00,Tuesday
7,-1.5499999999999999
8,0.0
9,0.0
10,0.0
11,0.0
12,0.0
13,0.0
14,8.617515738972714
15,-2.753663187920898
16,6.485967382213062
17,-0.7313462172361369
18,8.988176911852616
2,1, 1, 1, 0,22,15.00,30.00,Tuesday
7,-1.4
8,0.0
9,0.0
10,0.0
11,0.0
12,0.0
13,0.0
14,8.60081507195512
15,-2.4339902172249108
16,6.477380337964178
17,-0.7050844135346779
18,8.950611909318504
2,1, 1, 1, 0,22,30.00,45.00,Tuesday
7,-1.25
8,0.0
9,0.0
10,0.0
11,0.0
12,0.0
13,0.0
14,8.583616731041062
15,-2.218596688258337
16,6.476585204541266
17,-0.6185637904986834
18,8.923358249122181
2,1, 1, 1, 0,22,45.00,60.00,Tuesday
7,-1.1
8,0.0
9,0.0
10,0.0
11,0.0
12,0.0
13,0.0
14,8.570299507833303
15,-1.9444852842297152
16,6.4730430798578599
17,-0.5582808257860279
18,8.901097547355839
2,1, 1, 1, 0,23, 0.00,15.00,Tuesday
7,-1.25
8,0.0
9,0.0
10,0.0
11,0.0
12,0.0
13,0.0
14,8.515229341459765
15,-2.247722003672924
16,6.378603287928627
17,-0.836388794797017
18,8.873418422698713
2,1, 1, 1, 0,23,15.00,30.00,Tuesday
7,-1.4
8,0.0
9,0.0
10,0.0
11,0.0
12,0.0
13,0.0
14,8.462325293355324
15,-2.552426916265061
16,6.2722927334161799
17,-1.1276163124761638
18,8.835485191748396
2,1, 1, 1, 0,23,30.00,45.00,Tuesday
7,-1.5499999999999999
8,0.0
9,0.0
10,0.0
11,0.0
12,0.0
13,0.0
14,8.40456861756838
15,-2.857779038136025
16,6.163950966155767
17,-1.420322366754931
18,8.788714515788474
2,1, 1, 1, 0,23,45.00,60.00,Tuesday
7,-1.7
8,0.0
9,0.0
10,0.0
11,0.0
12,0.0
13,0.0
14,8.342911923451235
15,-3.163475657787901
16,6.051434861743928
17,-1.714961507173257
18,8.736203885308559
2,1, 1, 1, 0,24, 0.00,15.00,Tuesday
7,-1.7
8,0.0
9,0.0
10,0.0
11,0.0
12,0.0
13,0.0
14,8.296825966198029
15,-3.2177383618291577
16,5.994633818406783
17,-1.7833348096872329
18,8.683552981750298
2,1, 1, 1, 0,24,15.00,30.00,Tuesday
7,-1.7
8,0.0
9,0.0
10,0.0
11,0.0
12,0.0
13,0.0
14,8.248748621082168
15,-3.272543216794446
16,5.942677706809491
17,-1.8471105078060646
18,8.633631057608666
2,1, 1, 1, 0,24,30.00,45.00,Tuesday
7,-1.7
8,0.0
9,0.0
10,0.0
11,0.0
12,0.0
13,0.0
14,8.201862303341656
15,-3.327240606531243
16,5.890616002737488
17,-1.9105959448880868
18,8.586285967036144
2,1, 1, 1, 0,24,45.00,60.00,Tuesday
7,-1.7
8,0.0
9,0.0
10,0.0
11,0.0
12,0.0
13,0.0
14,8.155838298251222
15,-3.3819421387202808
16,5.8395431472768
17,-1.973686062211243
18,8.540419746660398
End of Data
 Number of Records Written=        1152
