Program Version,EnergyPlus, Version 9.5.0-de239b2e5f, YMD=2022.11.08 09:47
1,5,Environment Title[],Latitude[deg],Longitude[deg],Time Zone[],Elevation[m]
2,8,Day of Simulation[],Month[],Day of Month[],DST Indicator[1=yes 0=no],Hour[],StartMinute[],EndMinute[],DayType
3,5,Cumulative Day of Simulation[],Month[],Day of Month[],DST Indicator[1=yes 0=no],DayType  ! When Daily Report Variables Requested
4,2,Cumulative Days of Simulation[],Month[]  ! When Monthly Report Variables Requested
5,1,Cumulative Days of Simulation[] ! When Run Period Report Variables Requested
6,1,Calendar Year of Simulation[] ! When Annual Report Variables Requested
7,1,Environment,Site Outdoor Air Drybulb Temperature [C] !TimeStep
8,1,ZONE ONE,Zone Windows Total Transmitted Solar Radiation Rate [W] !TimeStep
9,1,ZN001:WALL001,Surface Outside Face Sunlit Fraction [] !TimeStep
10,1,ZN001:WALL001,Surface Outside Face Incident Solar Radiation Rate per Area [W/m2] !TimeStep
11,1,ZN001:WALL001:WIN001,Surface Outside Face Sunlit Fraction [] !TimeStep
12,1,ZN001:WALL001:WIN001,Surface Outside Face Incident Solar Radiation Rate per Area [W/m2] !TimeStep
13,1,ZN001:WALL001:WIN001,Surface Window Transmitted Solar Radiation Rate [W] !TimeStep
14,1,ZN001:WALL001,Surface Inside Face Temperature [C] !TimeStep
15,1,ZN001:WALL001,Surface Outside Face Temperature [C] !TimeStep
16,1,ZN001:WALL001:WIN001,Surface Inside Face Temperature [C] !TimeStep
17,1,ZN001:WALL001:WIN001,Surface Outside Face Temperature [C] !TimeStep
18,1,ZONE ONE,Zone Mean Air Temperature [C] !TimeStep
End of Data Dictionary
1,RUN PERIOD 1,  41.98, -87.92,  -6.00, 201.00
2,1, 1, 1, 0, 1, 0.00,15.00,Tuesday
7,-4.324999999999999
8,0.0
9,0.0
10,0.0
11,0.0
12,0.0
13,0.0
14,8.340297941958483
15,-5.8521184781520489
16,5.605743556155517
17,-3.9729794157121889
18,8.859905525034316
2,1, 1, 1, 0, 1,15.00,30.00,Tuesday
7,-6.949999999999999
8,0.0
9,0.0
10,0.0
11,0.0
12,0.0
13,0.0
14,8.153992183547107
15,-8.31910686685884
16,5.005362849428138
17,-6.060380808238449
18,8.754005768957259
2,1, 1, 1, 0, 1,30.00,45.00,Tuesday
7,-9.575
8,0.0
9,0.0
10,0.0
11,0.0
12,0.0
13,0.0
14,7.94744585144343
15,-10.79401911819158
16,4.397876703706402
17,-8.153865389639464
18,8.61691558925783
2,1, 1, 1, 0, 1,45.00,60.00,Tuesday
7,-12.2
8,0.0
9,0.0
10,0.0
11,0.0
12,0.0
13,0.0
14,7.725070897809519
15,-13.275574438171942
16,3.7751155705343537
17,-10.254817207694942
18,8.458530540834407
2,1, 1, 1, 0, 2, 0.00,15.00,Tuesday
7,-12.075
8,0.0
9,0.0
10,0.0
11,0.0
12,0.0
13,0.0
14,7.6487968979515419
15,-13.076219089948197
16,3.700498388202732
17,-10.092414581486935
18,8.315839013774396
2,1, 1, 1, 0, 2,15.00,30.00,Tuesday
7,-11.95
8,0.0
9,0.0
10,0.0
11,0.0
12,0.0
13,0.0
14,7.559599647181408
15,-12.899308723261367
16,3.659217873431487
17,-9.949509638987479
18,8.205267348061124
2,1, 1, 1, 0, 2,30.00,45.00,Tuesday
7,-11.825
8,0.0
9,0.0
10,0.0
11,0.0
12,0.0
13,0.0
14,7.487660137844429
15,-12.721256931962082
16,3.6239213619267618
17,-9.806139056862662
18,8.120855584378687
2,1, 1, 1, 0, 2,45.00,60.00,Tuesday
7,-11.7
8,0.0
9,0.0
10,0.0
11,0.0
12,0.0
13,0.0
14,7.426769061625415
15,-12.543295667165916
16,3.6013255910836508
17,-9.660141782511687
18,8.051373789022394
2,1, 1, 1, 0, 3, 0.00,15.00,Tuesday
7,-11.549999999999999
8,0.0
9,0.0
10,0.0
11,0.0
12,0.0
13,0.0
14,7.367528324637313
15,-12.41592207435145
16,3.587383035033554
17,-9.50859824625013
18,7.987997377797333
2,1, 1, 1, 0, 3,15.00,30.00,Tuesday
7,-11.399999999999999
8,0.0
9,0.0
10,0.0
11,0.0
12,0.0
13,0.0
14,7.311296018662208
15,-12.289860595723459
16,3.5751832276223469
17,-9.356784498539753
18,7.926544721837938
2,1, 1, 1, 0, 3,30.00,45.00,Tuesday
7,-11.25
8,0.0
9,0.0
10,0.0
11,0.0
12,0.0
13,0.0
14,7.255837412587827
15,-12.165253733261935
16,3.5646560873661885
17,-9.20467589780111
18,7.865918137494208
2,1, 1, 1, 0, 3,45.00,60.00,Tuesday
7,-11.1
8,0.0
9,0.0
10,0.0
11,0.0
12,0.0
13,0.0
14,7.2008597207215419
15,-12.0421554751005
16,3.5547507008596428
17,-9.052530577185792
18,7.806058967121286
2,1, 1, 1, 0, 4, 0.00,15.00,Tuesday
7,-11.1
8,0.0
9,0.0
10,0.0
11,0.0
12,0.0
13,0.0
14,7.142066492664362
15,-12.015623366227718
16,3.4933985953954904
17,-9.097497175607487
18,7.7460620470068959
2,1, 1, 1, 0, 4,15.00,30.00,Tuesday
7,-11.1
8,0.0
9,0.0
10,0.0
11,0.0
12,0.0
13,0.0
14,7.0836775607687019
15,-11.990108436249848
16,3.4353593697459248
17,-9.141045434892874
18,7.68556201798497
2,1, 1, 1, 0, 4,30.00,45.00,Tuesday
7,-11.1
8,0.0
9,0.0
10,0.0
11,0.0
12,0.0
13,0.0
14,7.025089007763208
15,-11.96603813515252
16,3.377699449627471
17,-9.183489889799774
18,7.6247021104837799
2,1, 1, 1, 0, 4,45.00,60.00,Tuesday
7,-11.1
8,0.0
9,0.0
10,0.0
11,0.0
12,0.0
13,0.0
14,6.966424001957763
15,-11.943284263629991
16,3.320249039522423
17,-9.224761623274788
18,7.563735047301387
2,1, 1, 1, 0, 5, 0.00,15.00,Tuesday
7,-10.975
8,0.0
9,0.0
10,0.0
11,0.0
12,0.0
13,0.0
14,6.913354887374342
15,-11.821515901852536
16,3.300675693142864
17,-9.140011539976684
18,7.503935221205325
2,1, 1, 1, 0, 5,15.00,30.00,Tuesday
7,-10.85
8,0.0
9,0.0
10,0.0
11,0.0
12,0.0
13,0.0
14,6.860528347832876
15,-11.699803776501394
16,3.2787767263804428
17,-9.047093270330607
18,7.445795609687304
2,1, 1, 1, 0, 5,30.00,45.00,Tuesday
7,-10.725
8,0.0
9,0.0
10,0.0
11,0.0
12,0.0
13,0.0
14,6.808775820382284
15,-11.578067901984229
16,3.2571883513090826
17,-8.953319068178985
18,7.389065291874041
2,1, 1, 1, 0, 5,45.00,60.00,Tuesday
7,-10.6
8,0.0
9,0.0
10,0.0
11,0.0
12,0.0
13,0.0
14,6.75790968980047
15,-11.456341243155869
16,3.2364392715907686
17,-8.85930265016259
18,7.333348679401326
2,1, 1, 1, 0, 6, 0.00,15.00,Tuesday
7,-10.6
8,0.0
9,0.0
10,0.0
11,0.0
12,0.0
13,0.0
14,6.700268088739449
15,-11.457448465006652
16,3.187217755163374
17,-8.862010869774622
18,7.277026219601206
2,1, 1, 1, 0, 6,15.00,30.00,Tuesday
7,-10.6
8,0.0
9,0.0
10,0.0
11,0.0
12,0.0
13,0.0
14,6.64327234769621
15,-11.458517362777622
16,3.1391212036299978
17,-8.87117662857787
18,7.219404723653413
2,1, 1, 1, 0, 6,30.00,45.00,Tuesday
7,-10.6
8,0.0
9,0.0
10,0.0
11,0.0
12,0.0
13,0.0
14,6.585752922979602
15,-11.459627848969389
16,3.0912175032800066
17,-8.880898224256669
18,7.160789054905873
2,1, 1, 1, 0, 6,45.00,60.00,Tuesday
7,-10.6
8,0.0
9,0.0
10,0.0
11,0.0
12,0.0
13,0.0
14,6.527950567189934
15,-11.460735375860447
16,3.042969998252431
17,-8.890759126874059
18,7.101704678427806
2,1, 1, 1, 0, 7, 0.00,15.00,Tuesday
7,-10.6
8,0.0
9,0.0
10,0.0
11,0.0
12,0.0
13,0.0
14,6.472025564989307
15,-11.438762655535726
16,2.986782843909509
17,-8.926285736669684
18,7.042787460666681
2,1, 1, 1, 0, 7,15.00,30.00,Tuesday
7,-10.6
8,0.0
9,0.0
10,0.0
11,0.0
12,0.0
13,0.0
14,6.416018123575876
15,-11.417929697544612
16,2.9326717611996857
17,-8.962150340927736
18,6.984365510013342
2,1, 1, 1, 0, 7,30.00,45.00,Tuesday
7,-10.6
8,0.0
9,0.0
10,0.0
11,0.0
12,0.0
13,0.0
14,6.360320586441616
15,-11.398159843780658
16,2.879069572539777
17,-8.997107824605223
18,6.926421201625439
2,1, 1, 1, 0, 7,45.00,60.00,Tuesday
7,-10.6
8,0.0
9,0.0
10,0.0
11,0.0
12,0.0
13,0.0
14,6.304936391239057
15,-11.379389729325688
16,2.8260111631266229
17,-9.030997232901143
18,6.868847539065323
2,1, 1, 1, 0, 8, 0.00,15.00,Tuesday
7,-10.45
8,0.0
9,0.0
10,0.0
11,0.0
12,0.0
13,0.0
14,6.249167014283857
15,-11.329337981940155
16,2.8003214941391549
17,-8.975717043202167
18,6.811383342358339
2,1, 1, 1, 0, 8,15.00,30.00,Tuesday
7,-10.3
8,201.90124889046764
9,1.0
10,22.819555959623899
11,1.0
12,22.819555959623899
13,201.90124889046764
14,6.321540752823994
15,-9.655298842405849
16,3.0680427282285338
17,-8.661883600609997
18,6.774177365138228
2,1, 1, 1, 0, 8,30.00,45.00,Tuesday
7,-10.15
8,991.337155787385
9,1.0
10,109.75755355442667
11,1.0
12,109.75755355442667
13,991.337155787385
14,6.744229737162473
15,-3.2789741616324155
16,4.227538504697748
17,-7.623508516745801
18,6.8136783232777999
2,1, 1, 1, 0, 8,45.00,60.00,Tuesday
7,-10.0
8,1802.6401946016272
9,1.0
10,195.8764694434918
11,1.0
12,195.8764694434918
13,1802.6401946016272
14,7.277366457969216
15,3.19358896315661
16,5.509505521142614
17,-6.593267130968684
18,6.9378388474753749
2,1, 1, 1, 0, 9, 0.00,15.00,Tuesday
7,-9.725
8,2611.148793513379
9,1.0
10,278.97248314719988
11,1.0
12,278.97248314719988
13,2611.148793513379
14,7.750535058154113
15,8.374847835397177
16,6.823469074646596
17,-5.671179533257714
18,7.121649948336066
2,1, 1, 1, 0, 9,15.00,30.00,Tuesday
7,-9.45
8,3463.4095065551884
9,1.0
10,364.91995730569456
11,1.0
12,364.91995730569456
13,3463.4095065551884
14,8.228393856352542
15,13.448863021138806
16,8.21989329333826
17,-4.740154573754353
18,7.353289305844608
2,1, 1, 1, 0, 9,30.00,45.00,Tuesday
7,-9.175
8,4027.2619560152136
9,1.0
10,420.35879993239237
11,1.0
12,420.35879993239237
13,4027.2619560152136
14,8.574055084752916
15,16.205445027285234
16,9.138054258905868
17,-4.156377178236994
18,7.611345121720146
2,1, 1, 1, 0, 9,45.00,60.00,Tuesday
7,-8.9
8,4612.586872604465
9,1.0
10,478.00138373643099
11,1.0
12,478.00138373643099
13,4612.586872604465
14,8.977468120597841
15,19.199507947388047
16,10.045752401500522
17,-3.561505171600686
18,7.885087901012325
2,1, 1, 1, 0,10, 0.00,15.00,Tuesday
7,-8.350000000000002
8,5210.278053708089
9,1.0
10,536.9185644770597
11,1.0
12,536.9185644770597
13,5210.278053708089
14,9.33121946506178
15,20.313376140777505
16,10.987944143972982
17,-2.915813777564722
18,8.174932247934665
2,1, 1, 1, 0,10,15.00,30.00,Tuesday
7,-7.800000000000001
8,5828.617669987797
9,1.0
10,598.0969199229219
11,1.0
12,598.0969199229219
13,5828.617669987797
14,9.716959743764863
15,21.563625642542659
16,11.946989531509985
17,-2.2676676273590035
18,8.311506052450636
2,1, 1, 1, 0,10,30.00,45.00,Tuesday
7,-7.25
8,6234.255634943171
9,1.0
10,637.6133352894237
11,1.0
12,637.6133352894237
13,6234.255634943171
14,9.980204409568053
15,21.61953340721684
16,12.636205878082479
17,-1.804126771383892
18,8.575696494039125
2,1, 1, 1, 0,10,45.00,60.00,Tuesday
7,-6.7
8,6633.918768128477
9,1.0
10,676.6412284283772
11,1.0
12,676.6412284283772
13,6633.918768128477
14,10.23590259991028
15,21.7764953364456
16,13.266198803128305
17,-1.3457087384535953
18,8.771109873714149
2,1, 1, 1, 0,11, 0.00,15.00,Tuesday
7,-6.275
8,7026.311009927618
9,1.0
10,715.0112779846514
11,1.0
12,715.0112779846514
13,7026.311009927618
14,10.642508487347156
15,23.876078381731778
16,13.96343993796927
17,-0.6715738567913832
18,9.224206299195606
2,1, 1, 1, 0,11,15.00,30.00,Tuesday
7,-5.85
8,7409.466825321537
9,1.0
10,752.5077794605232
11,1.0
12,752.5077794605232
13,7409.466825321537
14,11.100930122398463
15,25.813261940640698
16,14.71252831640004
17,-0.007835263233118895
18,9.648989477706334
2,1, 1, 1, 0,11,30.00,45.00,Tuesday
7,-5.425
8,7295.593525130957
9,1.0
10,742.5988714321785
11,1.0
12,742.5988714321785
13,7295.593525130957
14,11.382097574135284
15,25.665211380263594
16,14.962670924399845
17,0.30704362941071397
18,10.042399934556265
2,1, 1, 1, 0,11,45.00,60.00,Tuesday
7,-5.0
8,7132.881859564623
9,1.0
10,727.8169025450712
11,1.0
12,727.8169025450712
13,7132.881859564623
14,11.649062980472097
15,25.437000842450396
16,15.115057187700586
17,0.5921915983323061
18,10.389396051157317
2,1, 1, 1, 0,12, 0.00,15.00,Tuesday
7,-4.575
8,6853.067094845258
9,1.0
10,700.3759009170325
11,1.0
12,700.3759009170325
13,6853.067094845258
14,11.840266751842354
15,24.69507388195797
16,15.122135759513299
17,0.8284765446785514
18,10.687741920371249
2,1, 1, 1, 0,12,15.00,30.00,Tuesday
7,-4.15
8,6645.548248651983
9,1.0
10,681.6705029034473
11,1.0
12,681.6705029034473
13,6645.548248651983
14,12.018250059160716
15,24.364482233985365
16,15.176482017553554
17,1.1238077450364017
18,10.948956350012779
2,1, 1, 1, 0,12,30.00,45.00,Tuesday
7,-3.7249999999999998
8,5834.237887297536
9,1.0
10,602.01865277251
11,1.0
12,602.01865277251
13,5834.237887297536
14,11.965866832266239
15,21.337313142370229
16,14.577239686257599
17,0.9956824861179712
18,11.148169970697556
2,1, 1, 1, 0,12,45.00,60.00,Tuesday
7,-3.3
8,4764.895369239947
9,1.0
10,493.55004396206007
11,1.0
12,493.55004396206007
13,4764.895369239947
14,11.769226679252708
15,17.159441548005618
16,13.543022109812739
17,0.6368559469700585
18,11.255906385472958
2,1, 1, 1, 0,13, 0.00,15.00,Tuesday
7,-3.0249999999999996
8,3934.356057329293
9,1.0
10,412.335026418112
11,1.0
12,412.335026418112
13,3934.356057329293
14,11.635017063872896
15,14.31637450362483
16,12.703762624181934
17,0.4060461017159014
18,11.290219462637899
2,1, 1, 1, 0,13,15.00,30.00,Tuesday
7,-2.75
8,2881.553555479867
9,1.0
10,305.94037763660148
11,1.0
12,305.94037763660148
13,2881.553555479867
14,11.306321999863127
15,10.143955268134917
16,11.502789314262487
17,-0.033966704275144369
18,11.262060619892442
2,1, 1, 1, 0,13,30.00,45.00,Tuesday
7,-2.475
8,2630.7563930110247
9,1.0
10,281.0763483922329
11,1.0
12,281.0763483922329
13,2630.7563930110247
14,11.278587346712279
15,9.632583163185317
16,11.188740937006628
17,0.10663647814646993
18,11.214605296334432
2,1, 1, 1, 0,13,45.00,60.00,Tuesday
7,-2.2
8,2385.183682066198
9,1.0
10,256.7721209415886
11,1.0
12,256.7721209415886
13,2385.183682066198
14,11.23975368359336
15,9.026436800814267
16,10.97783745922061
17,0.2753063295339757
18,11.17443079777693
2,1, 1, 1, 0,14, 0.00,15.00,Tuesday
7,-1.9250000000000003
8,1948.452483972399
9,1.0
10,210.73276284570657
11,1.0
12,210.73276284570657
13,1948.452483972399
14,11.08072884276942
15,7.479911922702989
16,10.478217602078871
17,0.24535471805347698
18,11.13714527540336
2,1, 1, 1, 0,14,15.00,30.00,Tuesday
7,-1.6500000000000002
8,1730.854756488419
9,1.0
10,189.38488290342594
11,1.0
12,189.38488290342594
13,1730.854756488419
14,11.041673130107608
15,7.077878843473994
16,10.252405926578831
17,0.39390034776778296
18,11.102625421279859
2,1, 1, 1, 0,14,30.00,45.00,Tuesday
7,-1.375
8,1650.7456002834027
9,1.0
10,179.3940297802914
11,1.0
12,179.3940297802914
13,1650.7456002834027
14,11.02735772316392
15,7.202236107441691
16,10.207056623645827
17,0.6398610885608491
18,11.072538954276516
2,1, 1, 1, 0,14,45.00,60.00,Tuesday
7,-1.1
8,1569.7212408975343
9,1.0
10,169.43349014176136
11,1.0
12,169.43349014176136
13,1569.7212408975343
14,11.009098736573286
15,7.302930453236072
16,10.154341878305047
17,0.8844889752895142
18,11.046412100247425
2,1, 1, 1, 0,15, 0.00,15.00,Tuesday
7,-1.1
8,1652.2300849919434
9,1.0
10,178.15692317953907
11,1.0
12,178.15692317953907
13,1652.2300849919434
14,11.073782877979344
15,8.122257246205678
16,10.26892075132389
17,1.0151069745121504
18,11.028641503680208
2,1, 1, 1, 0,15,15.00,30.00,Tuesday
7,-1.1
8,1552.224788437759
9,1.0
10,166.40516310952945
11,1.0
12,166.40516310952945
13,1552.224788437759
14,11.01792173530312
15,7.760790710855311
16,10.146761181514023
17,0.9755857661964456
18,11.013481370999667
2,1, 1, 1, 0,15,30.00,45.00,Tuesday
7,-1.1
8,1308.8080517231297
9,1.0
10,140.8967369711617
11,1.0
12,140.8967369711617
13,1308.8080517231297
14,10.878160622152209
15,6.549783786277079
16,9.804398454767579
17,0.7899529164918704
18,10.990572296881695
2,1, 1, 1, 0,15,45.00,60.00,Tuesday
7,-1.1
8,1077.0423610167987
9,1.0
10,116.57355796743004
11,1.0
12,116.57355796743004
13,1077.0423610167987
14,10.769555624572936
15,5.352369079453039
16,9.458517262719738
17,0.5958179519508917
18,10.945468559340421
2,1, 1, 1, 0,16, 0.00,15.00,Tuesday
7,-1.1
8,854.8022681369699
9,1.0
10,93.14939272689483
11,1.0
12,93.14939272689483
13,854.8022681369699
14,10.651998479930507
15,4.303624552331118
16,9.153120547199592
17,0.48845286465495976
18,10.878853182322589
2,1, 1, 1, 0,16,15.00,30.00,Tuesday
7,-1.1
8,530.6627969457505
9,1.0
10,57.94047897402063
11,1.0
12,57.94047897402063
13,530.6627969457505
14,10.440117213754958
15,2.184383198415129
16,8.679283933789919
17,0.24729485526358986
18,10.786238047229548
2,1, 1, 1, 0,16,30.00,45.00,Tuesday
7,-1.1
8,411.4370117107262
9,1.0
10,45.38251793443488
11,1.0
12,45.38251793443488
13,411.4370117107262
14,10.353691824475721
15,1.5794280144742217
16,8.463850786884223
17,0.22886483655429402
18,10.683200398611368
2,1, 1, 1, 0,16,45.00,60.00,Tuesday
7,-1.1
8,287.2102920055431
9,1.0
10,32.02625108222755
11,1.0
12,32.02625108222755
13,287.2102920055431
14,10.227448970353722
15,0.722743681107917
16,8.267286969216685
17,0.21027714942590593
18,10.582637851077824
2,1, 1, 1, 0,17, 0.00,15.00,Tuesday
7,-1.1
8,157.53444289819078
9,1.0
10,17.762198626050539
11,1.0
12,17.762198626050539
13,157.53444289819078
14,10.077437122215424
15,-0.5195574408026474
16,8.019293124010745
17,0.08305617511183528
18,10.482617264176037
2,1, 1, 1, 0,17,15.00,30.00,Tuesday
7,-1.1
8,0.0
9,0.0
10,0.0
11,0.0
12,0.0
13,0.0
14,9.87696050523371
15,-2.3525734978332868
16,7.692769349493119
17,-0.17200182676776877
18,10.36961257629384
2,1, 1, 1, 0,17,30.00,45.00,Tuesday
7,-1.1
8,0.0
9,0.0
10,0.0
11,0.0
12,0.0
13,0.0
14,9.813068192265753
15,-2.484205717785857
16,7.605518173683777
17,-0.13358567959625135
18,10.259319881092662
2,1, 1, 1, 0,17,45.00,60.00,Tuesday
7,-1.1
8,0.0
9,0.0
10,0.0
11,0.0
12,0.0
13,0.0
14,9.732811058897552
15,-2.667784657546186
16,7.559953706000556
17,-0.0813378941967926
18,10.16621822561718
2,1, 1, 1, 0,18, 0.00,15.00,Tuesday
7,-1.25
8,0.0
9,0.0
10,0.0
11,0.0
12,0.0
13,0.0
14,9.664125397685627
15,-2.816594115338076
16,7.464749651993884
17,-0.2208420765880419
18,10.09057183807975
2,1, 1, 1, 0,18,15.00,30.00,Tuesday
7,-1.4
8,0.0
9,0.0
10,0.0
11,0.0
12,0.0
13,0.0
14,9.601095321562353
15,-2.969078745339453
16,7.3821294985934859
17,-0.35431975242096316
18,10.026571499663959
2,1, 1, 1, 0,18,30.00,45.00,Tuesday
7,-1.5499999999999999
8,0.0
9,0.0
10,0.0
11,0.0
12,0.0
13,0.0
14,9.54230604560289
15,-3.1212170860920676
16,7.304263146638505
17,-0.48684757995238217
18,9.968595380556057
2,1, 1, 1, 0,18,45.00,60.00,Tuesday
7,-1.7
8,0.0
9,0.0
10,0.0
11,0.0
12,0.0
13,0.0
14,9.48542531824925
15,-3.2735227363097798
16,7.229286022897895
17,-0.6187146119473823
18,9.913289741577224
2,1, 1, 1, 0,19, 0.00,15.00,Tuesday
7,-1.825
8,0.0
9,0.0
10,0.0
11,0.0
12,0.0
13,0.0
14,9.451915172763247
15,-3.137676525858234
16,7.134707622888925
17,-0.8175242640405713
18,9.862481017150103
2,1, 1, 1, 0,19,15.00,30.00,Tuesday
7,-1.9500000000000002
8,0.0
9,0.0
10,0.0
11,0.0
12,0.0
13,0.0
14,9.417041272930043
15,-3.0817524182995768
16,7.0565208212141219
17,-1.000337114968545
18,9.817950378149707
2,1, 1, 1, 0,19,30.00,45.00,Tuesday
7,-2.075
8,0.0
9,0.0
10,0.0
11,0.0
12,0.0
13,0.0
14,9.378228862410549
15,-3.1585214202231928
16,6.998483685999361
17,-1.1274334809245375
18,9.778402436420484
2,1, 1, 1, 0,19,45.00,60.00,Tuesday
7,-2.2
8,0.0
9,0.0
10,0.0
11,0.0
12,0.0
13,0.0
14,9.341029804776018
15,-3.1457862353152898
16,6.924679198434603
17,-1.3001788593576294
18,9.740659036942367
2,1, 1, 1, 0,20, 0.00,15.00,Tuesday
7,-1.9250000000000003
8,0.0
9,0.0
10,0.0
11,0.0
12,0.0
13,0.0
14,9.321448985128236
15,-2.846926869292727
16,6.955208758377125
17,-1.103165864899779
18,9.705617790593744
2,1, 1, 1, 0,20,15.00,30.00,Tuesday
7,-1.6500000000000002
8,0.0
9,0.0
10,0.0
11,0.0
12,0.0
13,0.0
14,9.301203327359988
15,-2.5509145292234427
16,6.983694407831877
17,-0.8944283963014073
18,9.673965099171558
2,1, 1, 1, 0,20,30.00,45.00,Tuesday
7,-1.375
8,0.0
9,0.0
10,0.0
11,0.0
12,0.0
13,0.0
14,9.282929363967707
15,-2.2560295529669869
16,7.013542031944382
17,-0.6832853747030754
18,9.645243430344987
2,1, 1, 1, 0,20,45.00,60.00,Tuesday
7,-1.1
8,0.0
9,0.0
10,0.0
11,0.0
12,0.0
13,0.0
14,9.26627820989552
15,-1.9623144687187265
16,7.045541680286419
17,-0.4697873003349855
18,9.618675632047694
2,1, 1, 1, 0,21, 0.00,15.00,Tuesday
7,-1.25
8,0.0
9,0.0
10,0.0
11,0.0
12,0.0
13,0.0
14,9.210993782160527
15,-2.2337719988453217
16,7.008294782571966
17,-0.5184056040333189
18,9.587549163511092
2,1, 1, 1, 0,21,15.00,30.00,Tuesday
7,-1.4
8,0.0
9,0.0
10,0.0
11,0.0
12,0.0
13,0.0
14,9.156477631464968
15,-2.445169113156322
16,6.952180824573588
17,-0.6012352322184142
18,9.547309744618693
2,1, 1, 1, 0,21,30.00,45.00,Tuesday
7,-1.5499999999999999
8,0.0
9,0.0
10,0.0
11,0.0
12,0.0
13,0.0
14,9.089307370771869
15,-2.7765760916393078
16,6.9080325933675799
17,-0.6352398809228816
18,9.497399247030974
2,1, 1, 1, 0,21,45.00,60.00,Tuesday
7,-1.7
8,0.0
9,0.0
10,0.0
11,0.0
12,0.0
13,0.0
14,9.01689090075137
15,-3.213541313254425
16,6.8645926457271
17,-0.6364758395478702
18,9.440223117262664
2,1, 1, 1, 0,22, 0.00,15.00,Tuesday
7,-1.5499999999999999
8,0.0
9,0.0
10,0.0
11,0.0
12,0.0
13,0.0
14,9.008045043508738
15,-2.743538905870482
16,6.813434372679865
17,-0.6505051518323626
18,9.38879148643527
2,1, 1, 1, 0,22,15.00,30.00,Tuesday
7,-1.4
8,0.0
9,0.0
10,0.0
11,0.0
12,0.0
13,0.0
14,8.989909886842959
15,-2.425251813942637
16,6.80147806873731
17,-0.6301595556203665
18,9.350069685029578
2,1, 1, 1, 0,22,30.00,45.00,Tuesday
7,-1.25
8,0.0
9,0.0
10,0.0
11,0.0
12,0.0
13,0.0
14,8.971378031820329
15,-2.2104791854396197
16,6.799474770712379
17,-0.54741054363069
18,9.321603788919362
2,1, 1, 1, 0,22,45.00,60.00,Tuesday
7,-1.1
8,0.0
9,0.0
10,0.0
11,0.0
12,0.0
13,0.0
14,8.95669378255605
15,-1.9374721890078229
16,6.793265306894227
17,-0.4930547507353822
18,9.298069245148972
2,1, 1, 1, 0,23, 0.00,15.00,Tuesday
7,-1.25
8,0.0
9,0.0
10,0.0
11,0.0
12,0.0
13,0.0
14,8.900530784697399
15,-2.240692755681553
16,6.698223220395562
17,-0.7715889665993245
18,9.26906621000787
2,1, 1, 1, 0,23,15.00,30.00,Tuesday
7,-1.4
8,0.0
9,0.0
10,0.0
11,0.0
12,0.0
13,0.0
14,8.846532543216009
15,-2.545408586416456
16,6.591256572037537
17,-1.0626279576825937
18,9.229804504460918
2,1, 1, 1, 0,23,30.00,45.00,Tuesday
7,-1.5499999999999999
8,0.0
9,0.0
10,0.0
11,0.0
12,0.0
13,0.0
14,8.787654620445173
15,-2.85077332177047
16,6.482247140076311
17,-1.35508870030435
18,9.181741912631825
2,1, 1, 1, 0,23,45.00,60.00,Tuesday
7,-1.7
8,0.0
9,0.0
10,0.0
11,0.0
12,0.0
13,0.0
14,8.724881774636094
15,-3.156482578833992
16,6.369067612601157
17,-1.6494218567152075
18,9.127990296246903
2,1, 1, 1, 0,24, 0.00,15.00,Tuesday
7,-1.7
8,0.0
9,0.0
10,0.0
11,0.0
12,0.0
13,0.0
14,8.677611695880915
15,-3.2107756683922878
16,6.311487637614732
17,-1.717371147890276
18,9.074152186400055
2,1, 1, 1, 0,24,15.00,30.00,Tuesday
7,-1.7
8,0.0
9,0.0
10,0.0
11,0.0
12,0.0
13,0.0
14,8.628367392190154
15,-3.265600080909408
16,6.25841257638308
17,-1.7817894669092312
18,9.023073768320039
2,1, 1, 1, 0,24,30.00,45.00,Tuesday
7,-1.7
8,0.0
9,0.0
10,0.0
11,0.0
12,0.0
13,0.0
14,8.580334764760116
15,-3.320317320424107
16,6.205349711809561
17,-1.845663685464217
18,8.974580046682798
2,1, 1, 1, 0,24,45.00,60.00,Tuesday
7,-1.7
8,0.0
9,0.0
10,0.0
11,0.0
12,0.0
13,0.0
14,8.53317147473034
15,-3.3750389789782009
16,6.153287323730751
17,-1.909110162953823
18,8.927561500195468
End of Data
 Number of Records Written=        1152
