Program Version,EnergyPlus, Version 9.5.0-de239b2e5f, YMD=2022.11.08 09:46
1,5,Environment Title[],Latitude[deg],Longitude[deg],Time Zone[],Elevation[m]
2,8,Day of Simulation[],Month[],Day of Month[],DST Indicator[1=yes 0=no],Hour[],StartMinute[],EndMinute[],DayType
3,5,Cumulative Day of Simulation[],Month[],Day of Month[],DST Indicator[1=yes 0=no],DayType  ! When Daily Report Variables Requested
4,2,Cumulative Days of Simulation[],Month[]  ! When Monthly Report Variables Requested
5,1,Cumulative Days of Simulation[] ! When Run Period Report Variables Requested
6,1,Calendar Year of Simulation[] ! When Annual Report Variables Requested
7,1,Environment,Site Outdoor Air Drybulb Temperature [C] !TimeStep
8,1,ZONE ONE,Zone Windows Total Transmitted Solar Radiation Rate [W] !TimeStep
9,1,ZN001:WALL001,Surface Outside Face Sunlit Fraction [] !TimeStep
10,1,ZN001:WALL001,Surface Outside Face Incident Solar Radiation Rate per Area [W/m2] !TimeStep
11,1,ZN001:WALL001:WIN001,Surface Outside Face Sunlit Fraction [] !TimeStep
12,1,ZN001:WALL001:WIN001,Surface Outside Face Incident Solar Radiation Rate per Area [W/m2] !TimeStep
13,1,ZN001:WALL001:WIN001,Surface Window Transmitted Solar Radiation Rate [W] !TimeStep
14,1,ZN001:WALL001,Surface Inside Face Temperature [C] !TimeStep
15,1,ZN001:WALL001,Surface Outside Face Temperature [C] !TimeStep
16,1,ZN001:WALL001:WIN001,Surface Inside Face Temperature [C] !TimeStep
17,1,ZN001:WALL001:WIN001,Surface Outside Face Temperature [C] !TimeStep
18,1,ZONE ONE,Zone Mean Air Temperature [C] !TimeStep
End of Data Dictionary
1,RUN PERIOD 1,  41.98, -87.92,  -6.00, 201.00
2,1, 1, 1, 0, 1, 0.00,15.00,Tuesday
7,-4.324999999999999
8,0.0
9,0.0
10,0.0
11,0.0
12,0.0
13,0.0
14,0.7384061071161344
15,-5.990642964750349
16,-0.6599363307465183
17,-5.259542417728653
18,1.063977556690218
2,1, 1, 1, 0, 1,15.00,30.00,Tuesday
7,-6.949999999999999
8,0.0
9,0.0
10,0.0
11,0.0
12,0.0
13,0.0
14,0.5656496267706147
15,-8.458602983112544
16,-1.2815009376157605
17,-7.347245183955124
18,0.9828141160801343
2,1, 1, 1, 0, 1,30.00,45.00,Tuesday
7,-9.575
8,0.0
9,0.0
10,0.0
11,0.0
12,0.0
13,0.0
14,0.3719909142639795
15,-10.935150853348084
16,-1.9035148749529754
17,-9.441608860415954
18,0.8682816951117957
2,1, 1, 1, 0, 1,45.00,60.00,Tuesday
7,-12.2
8,0.0
9,0.0
10,0.0
11,0.0
12,0.0
13,0.0
14,0.16183631683617917
15,-13.4181824681315
16,-2.538885941784258
17,-11.544404997048446
18,0.7293746312430391
2,1, 1, 1, 0, 2, 0.00,15.00,Tuesday
7,-12.075
8,0.0
9,0.0
10,0.0
11,0.0
12,0.0
13,0.0
14,0.11045283425746143
15,-13.219916444636113
16,-2.598645992415527
17,-11.400043067024115
18,0.6033964508810857
2,1, 1, 1, 0, 2,15.00,30.00,Tuesday
7,-11.95
8,0.0
9,0.0
10,0.0
11,0.0
12,0.0
13,0.0
14,0.04286510922275177
15,-13.042588685332472
16,-2.617368566456264
17,-11.251318822724898
18,0.5087280602589697
2,1, 1, 1, 0, 2,30.00,45.00,Tuesday
7,-11.825
8,0.0
9,0.0
10,0.0
11,0.0
12,0.0
13,0.0
14,-0.007762463569925522
15,-12.864007385430718
16,-2.631672840163219
17,-11.102269612521355
18,0.44138304513230078
2,1, 1, 1, 0, 2,45.00,60.00,Tuesday
7,-11.7
8,0.0
9,0.0
10,0.0
11,0.0
12,0.0
13,0.0
14,-0.046907086193452528
15,-12.685485201999084
16,-2.629607133874515
17,-10.960450963369908
18,0.3910028046373885
2,1, 1, 1, 0, 3, 0.00,15.00,Tuesday
7,-11.549999999999999
8,0.0
9,0.0
10,0.0
11,0.0
12,0.0
13,0.0
14,-0.08442568030390535
15,-12.561510048815057
16,-2.628016569485908
17,-10.824449371947935
18,0.34845594037886798
2,1, 1, 1, 0, 3,15.00,30.00,Tuesday
7,-11.399999999999999
8,0.0
9,0.0
10,0.0
11,0.0
12,0.0
13,0.0
14,-0.11833182605284862
15,-12.43899271946136
16,-2.6242947044270297
17,-10.688866879136129
18,0.30888880338880056
2,1, 1, 1, 0, 3,30.00,45.00,Tuesday
7,-11.25
8,0.0
9,0.0
10,0.0
11,0.0
12,0.0
13,0.0
14,-0.15113995045423909
15,-12.318109567990746
16,-2.6186097727372728
17,-10.553391539598124
18,0.27065879645658305
2,1, 1, 1, 0, 3,45.00,60.00,Tuesday
7,-11.1
8,0.0
9,0.0
10,0.0
11,0.0
12,0.0
13,0.0
14,-0.18336730056809784
15,-12.198922579301476
16,-2.6122286122471225
17,-10.418324126496885
18,0.2334053535795674
2,1, 1, 1, 0, 4, 0.00,15.00,Tuesday
7,-11.1
8,0.0
9,0.0
10,0.0
11,0.0
12,0.0
13,0.0
14,-0.2190927485820112
15,-12.167463938926819
16,-2.6509147829997348
17,-10.42919071951826
18,0.19629704063454579
2,1, 1, 1, 0, 4,15.00,30.00,Tuesday
7,-11.1
8,0.0
9,0.0
10,0.0
11,0.0
12,0.0
13,0.0
14,-0.254407537732399
15,-12.13722418617369
16,-2.684643618326618
17,-10.447109642844055
18,0.1589829604539499
2,1, 1, 1, 0, 4,30.00,45.00,Tuesday
7,-11.1
8,0.0
9,0.0
10,0.0
11,0.0
12,0.0
13,0.0
14,-0.2898343398672668
15,-12.10865921175924
16,-2.7176843165994457
17,-10.465121208320682
18,0.12150127755456758
2,1, 1, 1, 0, 4,45.00,60.00,Tuesday
7,-11.1
8,0.0
9,0.0
10,0.0
11,0.0
12,0.0
13,0.0
14,-0.32531357550710507
15,-12.08163408208938
16,-2.7505498026733905
17,-10.48259269166897
18,0.0839834909588553
2,1, 1, 1, 0, 5, 0.00,15.00,Tuesday
7,-10.975
8,0.0
9,0.0
10,0.0
11,0.0
12,0.0
13,0.0
14,-0.35406649931037578
15,-11.95930739059236
16,-2.7495178453170867
17,-10.393301950957153
18,0.04760150177053102
2,1, 1, 1, 0, 5,15.00,30.00,Tuesday
7,-10.85
8,0.0
9,0.0
10,0.0
11,0.0
12,0.0
13,0.0
14,-0.3836389736866085
15,-11.837119599410894
16,-2.749817671035885
17,-10.296220107254442
18,0.01277144022648633
2,1, 1, 1, 0, 5,30.00,45.00,Tuesday
7,-10.725
8,0.0
9,0.0
10,0.0
11,0.0
12,0.0
13,0.0
14,-0.41219566588755249
15,-11.714872308825058
16,-2.7501235313983445
17,-10.198379639477139
18,-0.02077351370308342
2,1, 1, 1, 0, 5,45.00,60.00,Tuesday
7,-10.6
8,0.0
9,0.0
10,0.0
11,0.0
12,0.0
13,0.0
14,-0.43997471975900367
15,-11.592638991106642
16,-2.7496892997852457
17,-10.100308914589619
18,-0.05340039169148226
2,1, 1, 1, 0, 6, 0.00,15.00,Tuesday
7,-10.6
8,0.0
9,0.0
10,0.0
11,0.0
12,0.0
13,0.0
14,-0.4761720752961394
15,-11.593381012110442
16,-2.7768522101862347
17,-10.101369827081215
18,-0.08668680958366228
2,1, 1, 1, 0, 6,15.00,30.00,Tuesday
7,-10.6
8,0.0
9,0.0
10,0.0
11,0.0
12,0.0
13,0.0
14,-0.5107974820171415
15,-11.593991172172295
16,-2.8059340474259217
17,-10.106232762640218
18,-0.12136189115476622
2,1, 1, 1, 0, 6,30.00,45.00,Tuesday
7,-10.6
8,0.0
9,0.0
10,0.0
11,0.0
12,0.0
13,0.0
14,-0.5460770225502755
15,-11.594684657274549
16,-2.834711503509368
17,-10.111892113787633
18,-0.15716085551560539
2,1, 1, 1, 0, 6,45.00,60.00,Tuesday
7,-10.6
8,0.0
9,0.0
10,0.0
11,0.0
12,0.0
13,0.0
14,-0.5817098027427484
15,-11.595373881948671
16,-2.8638017248416647
17,-10.117932692641887
18,-0.1935781525203471
2,1, 1, 1, 0, 7, 0.00,15.00,Tuesday
7,-10.6
8,0.0
9,0.0
10,0.0
11,0.0
12,0.0
13,0.0
14,-0.6151315707496602
15,-11.569452240574883
16,-2.897721973212697
17,-10.130088721839684
18,-0.22995915141761334
2,1, 1, 1, 0, 7,15.00,30.00,Tuesday
7,-10.6
8,0.0
9,0.0
10,0.0
11,0.0
12,0.0
13,0.0
14,-0.6487432147779026
15,-11.544876873940903
16,-2.928266996728553
17,-10.143586140516334
18,-0.26587175640576346
2,1, 1, 1, 0, 7,30.00,45.00,Tuesday
7,-10.6
8,0.0
9,0.0
10,0.0
11,0.0
12,0.0
13,0.0
14,-0.6821134135781921
15,-11.521543703143367
16,-2.9584498198427129
17,-10.156891583524953
18,-0.3012850781101951
2,1, 1, 1, 0, 7,45.00,60.00,Tuesday
7,-10.6
8,0.0
9,0.0
10,0.0
11,0.0
12,0.0
13,0.0
14,-0.715203215382946
15,-11.499379979690155
16,-2.988259488447625
17,-10.169730518028019
18,-0.33631237713215597
2,1, 1, 1, 0, 8, 0.00,15.00,Tuesday
7,-10.45
8,0.0
9,0.0
10,0.0
11,0.0
12,0.0
13,0.0
14,-0.7492465092665395
15,-11.451960244756144
16,-2.996753875251727
17,-10.138499252439317
18,-0.37136434227627315
2,1, 1, 1, 0, 8,15.00,30.00,Tuesday
7,-10.3
8,61.957859707238359
9,1.0
10,22.819555959623899
11,1.0
12,22.819555959623899
13,61.957859707238359
14,-0.6803267185804925
15,-9.779297915715262
16,-2.5920221647850214
17,-9.738310454949556
18,-0.39238771408869857
2,1, 1, 1, 0, 8,30.00,45.00,Tuesday
7,-10.15
8,305.95554014047078
9,1.0
10,109.75755355442667
11,1.0
12,109.75755355442667
13,305.95554014047078
14,-0.3317068239934205
15,-3.4227775163384428
16,-0.9132458166378683
17,-8.343526194970309
18,-0.3612930058776256
2,1, 1, 1, 0, 8,45.00,60.00,Tuesday
7,-10.0
8,561.1092769677096
9,1.0
10,195.8764694434918
11,1.0
12,195.8764694434918
13,561.1092769677096
14,0.1068253135530957
15,3.0741392726131577
16,0.8829173474302934
17,-6.966590039200355
18,-0.27300974622104959
2,1, 1, 1, 0, 9, 0.00,15.00,Tuesday
7,-9.725
8,819.9870887289213
9,1.0
10,278.97248314719988
11,1.0
12,278.97248314719988
13,819.9870887289213
14,0.42924335256345949
15,8.252503926011597
16,2.454616452368896
17,-5.777978527695268
18,-0.13818547729363296
2,1, 1, 1, 0, 9,15.00,30.00,Tuesday
7,-9.45
8,1097.293458322121
9,1.0
10,364.91995730569456
11,1.0
12,364.91995730569456
13,1097.293458322121
14,0.7884304039654271
15,13.334787770821749
16,4.010943148319598
17,-4.604145593973669
18,0.03550869032478989
2,1, 1, 1, 0, 9,30.00,45.00,Tuesday
7,-9.175
8,1286.3439422670402
9,1.0
10,420.35879993239237
11,1.0
12,420.35879993239237
13,1286.3439422670402
14,1.0300933230779515
15,16.094723412679739
16,5.030257947157338
17,-3.890631029588519
18,0.22926380503778052
2,1, 1, 1, 0, 9,45.00,60.00,Tuesday
7,-8.9
8,1484.005564330805
9,1.0
10,478.00138373643099
11,1.0
12,478.00138373643099
13,1484.005564330805
14,1.316411734560766
15,19.09056387240292
16,6.056373404204464
17,-3.1482168499209139
18,0.4347954663531847
2,1, 1, 1, 0,10, 0.00,15.00,Tuesday
7,-8.350000000000002
8,1687.0563272851555
9,1.0
10,536.9185644770597
11,1.0
12,536.9185644770597
13,1687.0563272851555
14,1.5418771151544546
15,20.212053892624078
16,7.108533525826033
17,-2.383657232054702
18,0.6566630822397643
2,1, 1, 1, 0,10,15.00,30.00,Tuesday
7,-7.800000000000001
8,1897.7690264980766
9,1.0
10,598.0969199229219
11,1.0
12,598.0969199229219
13,1897.7690264980766
14,1.791770984733108
15,21.468033069017129
16,8.182342959276298
17,-1.6229301403856198
18,0.8924027173510574
2,1, 1, 1, 0,10,30.00,45.00,Tuesday
7,-7.25
8,2039.5712829182704
9,1.0
10,637.6133352894237
11,1.0
12,637.6133352894237
13,2039.5712829182704
14,1.9750077719404349
15,21.530427113077626
16,8.92971593028227
17,-1.1067651166977726
18,1.1277841354850594
2,1, 1, 1, 0,10,45.00,60.00,Tuesday
7,-6.7
8,2179.302602851073
9,1.0
10,676.6412284283772
11,1.0
12,676.6412284283772
13,2179.302602851073
14,2.1732509289880745
15,21.692746867167707
16,9.65285544183223
17,-0.5953266348175248
18,1.354400309031139
2,1, 1, 1, 0,11, 0.00,15.00,Tuesday
7,-6.275
8,2316.405832488774
9,1.0
10,715.0112779846514
11,1.0
12,715.0112779846514
13,2316.405832488774
14,2.448387267352615
15,23.789952923875896
16,10.41477709473861
17,0.16244863340386929
18,1.5762407924100559
2,1, 1, 1, 0,11,15.00,30.00,Tuesday
7,-5.85
8,2450.108512758627
9,1.0
10,752.5077794605232
11,1.0
12,752.5077794605232
13,2450.108512758627
14,2.7088358237365055
15,25.724704792973616
16,11.16287757174183
17,0.8969649349389783
18,1.7983312523358107
2,1, 1, 1, 0,11,30.00,45.00,Tuesday
7,-5.425
8,2414.5992754966757
9,1.0
10,742.5988714321785
11,1.0
12,742.5988714321785
13,2414.5992754966757
14,2.8505835247976756
15,25.576435395985024
16,11.243112934248302
17,1.169680186789094
18,2.0058181502588887
2,1, 1, 1, 0,11,45.00,60.00,Tuesday
7,-5.0
8,2361.5685836789054
9,1.0
10,727.8169025450712
11,1.0
12,727.8169025450712
13,2361.5685836789054
14,2.9886102675875159
15,25.3467470071811
16,11.23131741961231
17,1.4048097589697478
18,2.1884950773499707
2,1, 1, 1, 0,12, 0.00,15.00,Tuesday
7,-4.575
8,2269.6667370616935
9,1.0
10,700.3759009170325
11,1.0
12,700.3759009170325
13,2269.6667370616935
14,3.0794341069994979
15,24.603751456318663
16,11.041881565044037
17,1.5626079083899072
18,2.3417787590691296
2,1, 1, 1, 0,12,15.00,30.00,Tuesday
7,-4.15
8,2198.8149935798967
9,1.0
10,681.6705029034473
11,1.0
12,681.6705029034473
13,2198.8149935798967
14,3.188090990530554
15,24.272888376253257
16,10.962000040627573
17,1.8030474707879876
18,2.472626923936718
2,1, 1, 1, 0,12,30.00,45.00,Tuesday
7,-3.7249999999999998
8,1925.8445508033904
9,1.0
10,602.01865277251
11,1.0
12,602.01865277251
13,1925.8445508033904
14,3.0991141088440998
15,21.244388585253298
16,10.015114605090162
17,1.4792428652634727
18,2.5642966009050127
2,1, 1, 1, 0,12,45.00,60.00,Tuesday
7,-3.3
8,1570.194892545808
9,1.0
10,493.55004396206007
11,1.0
12,493.55004396206007
13,1570.194892545808
14,2.918370517714279
15,17.06544368985433
16,8.571523842077795
17,0.86179804793926
18,2.6010475078697947
2,1, 1, 1, 0,13, 0.00,15.00,Tuesday
7,-3.0249999999999996
8,1289.199618694381
9,1.0
10,412.335026418112
11,1.0
12,412.335026418112
13,1289.199618694381
14,2.7927397364246748
15,14.220264129429643
16,7.453670542244481
17,0.4369073754020292
18,2.59323792003076
2,1, 1, 1, 0,13,15.00,30.00,Tuesday
7,-2.75
8,938.1263556570669
9,1.0
10,305.94037763660148
11,1.0
12,305.94037763660148
13,938.1263556570669
14,2.55229250829985
15,10.046226840977586
16,5.907197885731875
17,-0.25900244544084219
18,2.543254759643753
2,1, 1, 1, 0,13,30.00,45.00,Tuesday
7,-2.475
8,853.4839619010821
9,1.0
10,281.0763483922329
11,1.0
12,281.0763483922329
13,853.4839619010821
14,2.5323665614362165
15,9.531619729799046
16,5.567213034490578
17,-0.1779896973017685
18,2.483110516378783
2,1, 1, 1, 0,13,45.00,60.00,Tuesday
7,-2.2
8,770.5898405140243
9,1.0
10,256.7721209415886
11,1.0
12,256.7721209415886
13,770.5898405140243
14,2.502320663176923
15,8.9254770476643
16,5.27022611200357
17,-0.07527986132777187
18,2.434167891767717
2,1, 1, 1, 0,14, 0.00,15.00,Tuesday
7,-1.9250000000000003
8,627.6768724348955
9,1.0
10,210.73276284570657
11,1.0
12,210.73276284570657
13,627.6768724348955
14,2.403660647699623
15,7.376403226754051
16,4.600624228877791
17,-0.2345629298307017
18,2.3919963837958777
2,1, 1, 1, 0,14,15.00,30.00,Tuesday
7,-1.6500000000000002
8,554.2824228560137
9,1.0
10,189.38488290342594
11,1.0
12,189.38488290342594
13,554.2824228560137
14,2.3811105628555948
15,6.968810584876015
16,4.312026462467884
17,-0.15500284622532946
18,2.3564533363340178
2,1, 1, 1, 0,14,30.00,45.00,Tuesday
7,-1.375
8,529.6312435246796
9,1.0
10,179.3940297802914
11,1.0
12,179.3940297802914
13,529.6312435246796
14,2.3854069017382528
15,7.089521453357052
16,4.224010176968477
17,0.0472127462577987
18,2.329003548005003
2,1, 1, 1, 0,14,45.00,60.00,Tuesday
7,-1.1
8,504.2805236849672
9,1.0
10,169.43349014176136
11,1.0
12,169.43349014176136
13,504.2805236849672
14,2.387329446562709
15,7.1862512808674519
16,4.134295529390329
17,0.24731565202648654
18,2.3093364551131185
2,1, 1, 1, 0,15, 0.00,15.00,Tuesday
7,-1.1
8,530.0392234561232
9,1.0
10,178.15692317953907
11,1.0
12,178.15692317953907
13,530.0392234561232
14,2.433902474523669
15,8.000255079329444
16,4.290182218563245
17,0.3894865457451715
18,2.29964629386658
2,1, 1, 1, 0,15,15.00,30.00,Tuesday
7,-1.1
8,497.7320040675687
9,1.0
10,166.40516310952945
11,1.0
12,166.40516310952945
13,497.7320040675687
14,2.4009820250905196
15,7.6365239399914499
16,4.105811860529002
17,0.2970914743877415
18,2.293832672398029
2,1, 1, 1, 0,15,30.00,45.00,Tuesday
7,-1.1
8,418.0361295362668
9,1.0
10,140.8967369711617
11,1.0
12,140.8967369711617
13,418.0361295362668
14,2.3169463023282268
15,6.428304357171182
16,3.6635865498084287
17,0.006492772111528211
18,2.2800241324093868
2,1, 1, 1, 0,15,45.00,60.00,Tuesday
7,-1.1
8,342.52931153502029
9,1.0
10,116.57355796743004
11,1.0
12,116.57355796743004
13,342.52931153502029
14,2.226517227779381
15,5.215668737969356
16,3.215165187825505
17,-0.28360763654723089
18,2.251828692676789
2,1, 1, 1, 0,16, 0.00,15.00,Tuesday
7,-1.1
8,270.6193720620145
9,1.0
10,93.14939272689483
11,1.0
12,93.14939272689483
13,270.6193720620145
14,2.138035199179719
15,4.15653800256195
16,2.787518735199569
17,-0.5189279494044286
18,2.210505277105197
2,1, 1, 1, 0,16,15.00,30.00,Tuesday
7,-1.1
8,167.23127681231626
9,1.0
10,57.94047897402063
11,1.0
12,57.94047897402063
13,167.23127681231626
14,1.9814489773455713
15,2.026059662271962
16,2.079282894052426
17,-0.9652811445179168
18,2.1534322925911777
2,1, 1, 1, 0,16,30.00,45.00,Tuesday
7,-1.1
8,129.01377926518297
9,1.0
10,45.38251793443488
11,1.0
12,45.38251793443488
13,129.01377926518297
14,1.9259606593626522
15,1.407627832515684
16,1.799121083363275
17,-1.10395940553434
18,2.088156393802601
2,1, 1, 1, 0,16,45.00,60.00,Tuesday
7,-1.1
8,89.66922447838644
9,1.0
10,32.02625108222755
11,1.0
12,32.02625108222755
13,89.66922447838644
14,1.8388708713341629
15,0.5339882073511348
16,1.520772372698957
17,-1.2687406229113663
18,2.0205472237497137
2,1, 1, 1, 0,17, 0.00,15.00,Tuesday
7,-1.1
8,49.03739529914364
9,1.0
10,17.762198626050539
11,1.0
12,17.762198626050539
13,49.03739529914364
14,1.7233881444196806
15,-0.7313612398225575
16,1.1849345931700555
17,-1.5640811741916423
18,1.947898950392915
2,1, 1, 1, 0,17,15.00,30.00,Tuesday
7,-1.1
8,0.0
9,0.0
10,0.0
11,0.0
12,0.0
13,0.0
14,1.5604943335015942
15,-2.574573690889768
16,0.7781876535618721
17,-1.906697374554426
18,1.8595851337276926
2,1, 1, 1, 0,17,30.00,45.00,Tuesday
7,-1.1
8,0.0
9,0.0
10,0.0
11,0.0
12,0.0
13,0.0
14,1.5174974199797047
15,-2.7163803985070738
16,0.6896301338184685
17,-1.9738598333356095
18,1.7683720966569979
2,1, 1, 1, 0,17,45.00,60.00,Tuesday
7,-1.1
8,0.0
9,0.0
10,0.0
11,0.0
12,0.0
13,0.0
14,1.4590463299899264
15,-2.9185561266873818
16,0.6313437127193993
17,-2.0468769347174886
18,1.6894288779428164
2,1, 1, 1, 0,18, 0.00,15.00,Tuesday
7,-1.25
8,0.0
9,0.0
10,0.0
11,0.0
12,0.0
13,0.0
14,1.411417192275044
15,-3.064999332427451
16,0.552625746140393
17,-2.1872341995255057
18,1.6268143418003272
2,1, 1, 1, 0,18,15.00,30.00,Tuesday
7,-1.4
8,0.0
9,0.0
10,0.0
11,0.0
12,0.0
13,0.0
14,1.368493320261289
15,-3.2173582095846218
16,0.48570247638917865
17,-2.317440417467992
18,1.5774593749994635
2,1, 1, 1, 0,18,30.00,45.00,Tuesday
7,-1.5499999999999999
8,0.0
9,0.0
10,0.0
11,0.0
12,0.0
13,0.0
14,1.3311238633530596
15,-3.369039821819162
16,0.4228339961388201
17,-2.44715374943371
18,1.5367348010716178
2,1, 1, 1, 0,18,45.00,60.00,Tuesday
7,-1.7
8,0.0
9,0.0
10,0.0
11,0.0
12,0.0
13,0.0
14,1.295321886847
15,-3.5209608826894795
16,0.36362690845601267
17,-2.5758221143936455
18,1.500962050787068
2,1, 1, 1, 0,19, 0.00,15.00,Tuesday
7,-1.825
8,0.0
9,0.0
10,0.0
11,0.0
12,0.0
13,0.0
14,1.2879328143148899
15,-3.3564581788993075
16,0.3384110638955917
17,-2.590611574792433
18,1.4716773264279398
2,1, 1, 1, 0,19,15.00,30.00,Tuesday
7,-1.9500000000000002
8,0.0
9,0.0
10,0.0
11,0.0
12,0.0
13,0.0
14,1.2804803385392887
15,-3.2753293570920505
16,0.3155733902766542
17,-2.627739161390309
18,1.450312122275392
2,1, 1, 1, 0,19,30.00,45.00,Tuesday
7,-2.075
8,0.0
9,0.0
10,0.0
11,0.0
12,0.0
13,0.0
14,1.2677343882638253
15,-3.3452143484101954
16,0.28257389633461119
17,-2.7127443606983094
18,1.435090183101182
2,1, 1, 1, 0,19,45.00,60.00,Tuesday
7,-2.2
8,0.0
9,0.0
10,0.0
11,0.0
12,0.0
13,0.0
14,1.258431815607624
15,-3.3103020050435658
16,0.26139460209896017
17,-2.7670264387074896
18,1.4230188716298678
2,1, 1, 1, 0,20, 0.00,15.00,Tuesday
7,-1.9250000000000003
8,0.0
9,0.0
10,0.0
11,0.0
12,0.0
13,0.0
14,1.264900156590953
15,-3.005913931822775
16,0.3231860142865344
17,-2.5330431478021184
18,1.4139023961164584
2,1, 1, 1, 0,20,15.00,30.00,Tuesday
7,-1.6500000000000002
8,0.0
9,0.0
10,0.0
11,0.0
12,0.0
13,0.0
14,1.2724178176413093
15,-2.704835547606358
16,0.3854004609028152
17,-2.2922417714956397
18,1.4079200589905763
2,1, 1, 1, 0,20,30.00,45.00,Tuesday
7,-1.375
8,0.0
9,0.0
10,0.0
11,0.0
12,0.0
13,0.0
14,1.281489010910463
15,-2.405207643732542
16,0.44932249627470358
17,-2.0499289490219896
18,1.4046937984554136
2,1, 1, 1, 0,20,45.00,60.00,Tuesday
7,-1.1
8,0.0
9,0.0
10,0.0
11,0.0
12,0.0
13,0.0
14,1.2916441788519209
15,-2.1069841273206246
16,0.5150074589818132
17,-1.8062773801439676
18,1.4035966583174174
2,1, 1, 1, 0,21, 0.00,15.00,Tuesday
7,-1.25
8,0.0
9,0.0
10,0.0
11,0.0
12,0.0
13,0.0
14,1.2575767560653855
15,-2.4012300188336694
16,0.45695567012268159
17,-1.9735358759784277
18,1.398537243919584
2,1, 1, 1, 0,21,15.00,30.00,Tuesday
7,-1.4
8,0.0
9,0.0
10,0.0
11,0.0
12,0.0
13,0.0
14,1.2210501152728897
15,-2.6247418115301217
16,0.4022093437183685
17,-2.1209250497851146
18,1.3845882862151318
2,1, 1, 1, 0,21,30.00,45.00,Tuesday
7,-1.5499999999999999
8,0.0
9,0.0
10,0.0
11,0.0
12,0.0
13,0.0
14,1.1715605243573355
15,-2.9860725437270707
16,0.33011022550533655
17,-2.3105203517500287
18,1.3599426724828117
2,1, 1, 1, 0,21,45.00,60.00,Tuesday
7,-1.7
8,0.0
9,0.0
10,0.0
11,0.0
12,0.0
13,0.0
14,1.1168211981905363
15,-3.457358489684326
16,0.2449762594811773
17,-2.534333856054104
18,1.32610866548831
2,1, 1, 1, 0,22, 0.00,15.00,Tuesday
7,-1.5499999999999999
8,0.0
9,0.0
10,0.0
11,0.0
12,0.0
13,0.0
14,1.1379713617291132
15,-2.946744763645646
16,0.28014881345586675
17,-2.3148024925867505
18,1.2969322967177255
2,1, 1, 1, 0,22,15.00,30.00,Tuesday
7,-1.4
8,0.0
9,0.0
10,0.0
11,0.0
12,0.0
13,0.0
14,1.1495897241459128
15,-2.600939903086912
16,0.33010803364811638
17,-2.1271560787910746
18,1.2803783075087896
2,1, 1, 1, 0,22,30.00,45.00,Tuesday
7,-1.25
8,0.0
9,0.0
10,0.0
11,0.0
12,0.0
13,0.0
14,1.159376581014158
15,-2.373774271204603
16,0.37395980952965149
17,-1.9846070504584077
18,1.2749309277619497
2,1, 1, 1, 0,22,45.00,60.00,Tuesday
7,-1.1
8,0.0
9,0.0
10,0.0
11,0.0
12,0.0
13,0.0
14,1.1728973163955885
15,-2.078583982664177
16,0.4241085821631714
17,-1.7942522440632729
18,1.27579484499652
2,1, 1, 1, 0,23, 0.00,15.00,Tuesday
7,-1.25
8,0.0
9,0.0
10,0.0
11,0.0
12,0.0
13,0.0
14,1.1390310689078576
15,-2.3824617517790336
16,0.34189217427763199
17,-2.0741521332542449
18,1.2733387687357574
2,1, 1, 1, 0,23,15.00,30.00,Tuesday
7,-1.4
8,0.0
9,0.0
10,0.0
11,0.0
12,0.0
13,0.0
14,1.105070974620091
15,-2.687048145374492
16,0.24728098407001654
17,-2.363340846228539
18,1.2617646446589317
2,1, 1, 1, 0,23,30.00,45.00,Tuesday
7,-1.5499999999999999
8,0.0
9,0.0
10,0.0
11,0.0
12,0.0
13,0.0
14,1.0668994035471067
15,-2.992116364731181
16,0.15114888938597915
17,-2.652654711528214
18,1.2409357682629443
2,1, 1, 1, 0,23,45.00,60.00,Tuesday
7,-1.7
8,0.0
9,0.0
10,0.0
11,0.0
12,0.0
13,0.0
14,1.0262288141223229
15,-3.297509852746694
16,0.05175641590130908
17,-2.9425010143471015
18,1.2131945407319203
2,1, 1, 1, 0,24, 0.00,15.00,Tuesday
7,-1.7
8,0.0
9,0.0
10,0.0
11,0.0
12,0.0
13,0.0
14,1.003759138268641
15,-3.3511253303067134
16,0.014772571920843803
17,-3.000730988210478
18,1.1839399946649046
2,1, 1, 1, 0,24,15.00,30.00,Tuesday
7,-1.7
8,0.0
9,0.0
10,0.0
11,0.0
12,0.0
13,0.0
14,0.9782024059769644
15,-3.405585643275218
16,-0.018279866959574066
17,-3.0585579571080645
18,1.1564071567454264
2,1, 1, 1, 0,24,30.00,45.00,Tuesday
7,-1.7
8,0.0
9,0.0
10,0.0
11,0.0
12,0.0
13,0.0
14,0.953247284998073
15,-3.45990810182555
16,-0.05199336600225024
17,-3.116635389708449
18,1.130987908562561
2,1, 1, 1, 0,24,45.00,60.00,Tuesday
7,-1.7
8,0.0
9,0.0
10,0.0
11,0.0
12,0.0
13,0.0
14,0.9288642249746117
15,-3.5142284862700459
16,-0.08510566554548405
17,-3.174516354634818
18,1.1069602182133005
End of Data
 Number of Records Written=        1152
