Program Version,EnergyPlus, Version 9.5.0-de239b2e5f, YMD=2022.11.08 09:47
1,5,Environment Title[],Latitude[deg],Longitude[deg],Time Zone[],Elevation[m]
2,8,Day of Simulation[],Month[],Day of Month[],DST Indicator[1=yes 0=no],Hour[],StartMinute[],EndMinute[],DayType
3,5,Cumulative Day of Simulation[],Month[],Day of Month[],DST Indicator[1=yes 0=no],DayType  ! When Daily Report Variables Requested
4,2,Cumulative Days of Simulation[],Month[]  ! When Monthly Report Variables Requested
5,1,Cumulative Days of Simulation[] ! When Run Period Report Variables Requested
6,1,Calendar Year of Simulation[] ! When Annual Report Variables Requested
7,1,Environment,Site Outdoor Air Drybulb Temperature [C] !TimeStep
8,1,ZONE ONE,Zone Windows Total Transmitted Solar Radiation Rate [W] !TimeStep
9,1,ZN001:WALL001,Surface Outside Face Sunlit Fraction [] !TimeStep
10,1,ZN001:WALL001,Surface Outside Face Incident Solar Radiation Rate per Area [W/m2] !TimeStep
11,1,ZN001:WALL001:WIN001,Surface Outside Face Sunlit Fraction [] !TimeStep
12,1,ZN001:WALL001:WIN001,Surface Outside Face Incident Solar Radiation Rate per Area [W/m2] !TimeStep
13,1,ZN001:WALL001:WIN001,Surface Window Transmitted Solar Radiation Rate [W] !TimeStep
14,1,ZN001:WALL001,Surface Inside Face Temperature [C] !TimeStep
15,1,ZN001:WALL001,Surface Outside Face Temperature [C] !TimeStep
16,1,ZN001:WALL001:WIN001,Surface Inside Face Temperature [C] !TimeStep
17,1,ZN001:WALL001:WIN001,Surface Outside Face Temperature [C] !TimeStep
18,1,ZONE ONE,Zone Mean Air Temperature [C] !TimeStep
End of Data Dictionary
1,RUN PERIOD 1,  41.98, -87.92,  -6.00, 201.00
2,1, 1, 1, 0, 1, 0.00,15.00,Tuesday
7,-4.324999999999999
8,0.0
9,0.0
10,0.0
11,0.0
12,0.0
13,0.0
14,7.587257989598508
15,-5.865804048873059
16,4.978416885455545
17,-4.099871998071251
18,8.088719335595933
2,1, 1, 1, 0, 1,15.00,30.00,Tuesday
7,-6.949999999999999
8,0.0
9,0.0
10,0.0
11,0.0
12,0.0
13,0.0
14,7.402291992523233
15,-8.33293274088396
16,4.3766638305708629
17,-6.1873524417487719
18,7.985233344569052
2,1, 1, 1, 0, 1,30.00,45.00,Tuesday
7,-9.575
8,0.0
9,0.0
10,0.0
11,0.0
12,0.0
13,0.0
14,7.1971587943065729
15,-10.807997309917994
16,3.768133432959303
17,-8.280994320047967
18,7.850368542415166
2,1, 1, 1, 0, 1,45.00,60.00,Tuesday
7,-12.2
8,0.0
9,0.0
10,0.0
11,0.0
12,0.0
13,0.0
14,6.976182267551318
15,-13.289697754829195
16,3.144472844744371
17,-10.382165639624987
18,7.693969623446179
2,1, 1, 1, 0, 2, 0.00,15.00,Tuesday
7,-12.075
8,0.0
9,0.0
10,0.0
11,0.0
12,0.0
13,0.0
14,6.902267900898854
15,-13.09044819015184
16,3.0715103007142376
17,-10.221160825625703
18,7.5530484307747589
2,1, 1, 1, 0, 2,15.00,30.00,Tuesday
7,-11.95
8,0.0
9,0.0
10,0.0
11,0.0
12,0.0
13,0.0
14,6.815239034353365
15,-12.913490446930702
16,3.0324383395042107
17,-10.077690980951047
18,7.44419598783221
2,1, 1, 1, 0, 2,30.00,45.00,Tuesday
7,-11.825
8,0.0
9,0.0
10,0.0
11,0.0
12,0.0
13,0.0
14,6.7454490526327
15,-12.735385346837518
16,2.9992502450087956
17,-9.933775585053127
18,7.361616573695882
2,1, 1, 1, 0, 2,45.00,60.00,Tuesday
7,-11.7
8,0.0
9,0.0
10,0.0
11,0.0
12,0.0
13,0.0
14,6.686751412161481
15,-12.557367450683782
16,2.9787626333870778
17,-9.787227569976153
18,7.294140327220448
2,1, 1, 1, 0, 3, 0.00,15.00,Tuesday
7,-11.549999999999999
8,0.0
9,0.0
10,0.0
11,0.0
12,0.0
13,0.0
14,6.629708046380714
15,-12.430330776291873
16,2.966448911763905
17,-9.637152580456302
18,7.232908905279859
2,1, 1, 1, 0, 3,15.00,30.00,Tuesday
7,-11.399999999999999
8,0.0
9,0.0
10,0.0
11,0.0
12,0.0
13,0.0
14,6.575724452344679
15,-12.304621391231028
16,2.955929459626077
17,-9.486840325749143
18,7.173681332321204
2,1, 1, 1, 0, 3,30.00,45.00,Tuesday
7,-11.25
8,0.0
9,0.0
10,0.0
11,0.0
12,0.0
13,0.0
14,6.522537933113227
15,-12.180384771686155
16,2.94710672199119
17,-9.336257296306144
18,7.1153144687779898
2,1, 1, 1, 0, 3,45.00,60.00,Tuesday
7,-11.1
8,0.0
9,0.0
10,0.0
11,0.0
12,0.0
13,0.0
14,6.4698924837720679
15,-12.0576757103786
16,2.9426942091975549
17,-9.194844836983919
18,7.057791078061725
2,1, 1, 1, 0, 4, 0.00,15.00,Tuesday
7,-11.1
8,0.0
9,0.0
10,0.0
11,0.0
12,0.0
13,0.0
14,6.413388295229379
15,-12.030650632640502
16,2.880625216546946
17,-9.228896492918125
18,7.000118481931347
2,1, 1, 1, 0, 4,15.00,30.00,Tuesday
7,-11.1
8,0.0
9,0.0
10,0.0
11,0.0
12,0.0
13,0.0
14,6.357315806133337
15,-12.004666689535858
16,2.8245868498283928
17,-9.26944539503154
18,6.941925232329381
2,1, 1, 1, 0, 4,30.00,45.00,Tuesday
7,-11.1
8,0.0
9,0.0
10,0.0
11,0.0
12,0.0
13,0.0
14,6.301031823132496
15,-11.980150484426942
16,2.769320991673567
17,-9.309545718254413
18,6.883373410878627
2,1, 1, 1, 0, 4,45.00,60.00,Tuesday
7,-11.1
8,0.0
9,0.0
10,0.0
11,0.0
12,0.0
13,0.0
14,6.24466777058389
15,-11.956972694322588
16,2.7142845989698118
17,-9.348577817012142
18,6.8247228854676689
2,1, 1, 1, 0, 5, 0.00,15.00,Tuesday
7,-10.975
8,0.0
9,0.0
10,0.0
11,0.0
12,0.0
13,0.0
14,6.193910159398706
15,-11.835149751569503
16,2.696777154665824
17,-9.263375878615762
18,6.767232018187176
2,1, 1, 1, 0, 5,15.00,30.00,Tuesday
7,-10.85
8,0.0
9,0.0
10,0.0
11,0.0
12,0.0
13,0.0
14,6.1433903761188
15,-11.71338710177097
16,2.6770039786383679
17,-9.170046893351639
18,6.7113890650606848
2,1, 1, 1, 0, 5,30.00,45.00,Tuesday
7,-10.725
8,0.0
9,0.0
10,0.0
11,0.0
12,0.0
13,0.0
14,6.093932741369225
15,-11.591601061129346
16,2.6575356065017674
17,-9.075864153281032
18,6.65694714306259
2,1, 1, 1, 0, 5,45.00,60.00,Tuesday
7,-10.6
8,0.0
9,0.0
10,0.0
11,0.0
12,0.0
13,0.0
14,6.0453531038506329
15,-11.469824339899743
16,2.6388964750344146
17,-8.981440832845465
18,6.603514416307584
2,1, 1, 1, 0, 6, 0.00,15.00,Tuesday
7,-10.6
8,0.0
9,0.0
10,0.0
11,0.0
12,0.0
13,0.0
14,5.989937637013167
15,-11.47089414472388
16,2.5916426725576686
17,-8.983710276214538
18,6.549475762202045
2,1, 1, 1, 0, 6,15.00,30.00,Tuesday
7,-10.6
8,0.0
9,0.0
10,0.0
11,0.0
12,0.0
13,0.0
14,5.93516454311661
15,-11.471920956472877
16,2.545490587304812
17,-8.992495273004466
18,6.494132958508386
2,1, 1, 1, 0, 6,30.00,45.00,Tuesday
7,-10.6
8,0.0
9,0.0
10,0.0
11,0.0
12,0.0
13,0.0
14,5.8798638533022429
15,-11.47298952029397
16,2.4995289758506944
17,-9.001844900439153
18,6.437783751571229
2,1, 1, 1, 0, 6,45.00,60.00,Tuesday
7,-10.6
8,0.0
9,0.0
10,0.0
11,0.0
12,0.0
13,0.0
14,5.824271674465355
15,-11.47405540584015
16,2.4532181341169236
17,-9.01133622612781
18,6.38095064716882
2,1, 1, 1, 0, 7, 0.00,15.00,Tuesday
7,-10.6
8,0.0
9,0.0
10,0.0
11,0.0
12,0.0
13,0.0
14,5.770587717800482
15,-11.45169113468067
16,2.3994323457708335
17,-9.044815158268932
18,6.3242793949077689
2,1, 1, 1, 0, 7,15.00,30.00,Tuesday
7,-10.6
8,0.0
9,0.0
10,0.0
11,0.0
12,0.0
13,0.0
14,5.716810675668823
15,-11.430486754667257
16,2.3476588924106638
17,-9.07858642706151
18,6.268103513824618
2,1, 1, 1, 0, 7,30.00,45.00,Tuesday
7,-10.6
8,0.0
9,0.0
10,0.0
11,0.0
12,0.0
13,0.0
14,5.663338603742781
15,-11.410363466585702
16,2.2963736405036458
17,-9.11149180797753
18,6.212405436444658
2,1, 1, 1, 0, 7,45.00,60.00,Tuesday
7,-10.6
8,0.0
9,0.0
10,0.0
11,0.0
12,0.0
13,0.0
14,5.6101759236196069
15,-11.39125693579449
16,2.2456172469214836
17,-9.143377657194379
18,6.157076273290235
2,1, 1, 1, 0, 8, 0.00,15.00,Tuesday
7,-10.45
8,0.0
9,0.0
10,0.0
11,0.0
12,0.0
13,0.0
14,5.55657074825808
15,-11.34146684894488
16,2.2213647450421378
17,-9.089349428373794
18,6.101835201348321
2,1, 1, 1, 0, 8,15.00,30.00,Tuesday
7,-10.3
8,188.30072792854589
9,1.0
10,22.819555959623899
11,1.0
12,22.819555959623899
13,188.30072792854589
14,5.628755662195477
15,-9.667558066803109
16,2.500691341658694
17,-8.769504293927753
18,6.066231485602999
2,1, 1, 1, 0, 8,30.00,45.00,Tuesday
7,-10.15
8,924.5584615409305
9,1.0
10,109.75755355442667
11,1.0
12,109.75755355442667
13,924.5584615409305
14,6.0446093921251349
15,-3.293024123742409
16,3.702755714214277
17,-7.7004865667727249
18,6.104968078365568
2,1, 1, 1, 0, 8,45.00,60.00,Tuesday
7,-10.0
8,1681.2103080200473
9,1.0
10,195.8764694434918
11,1.0
12,195.8764694434918
13,1681.2103080200473
14,6.570094523107582
15,3.182419882511402
16,5.031765688165365
17,-6.6371127531939468
18,6.225847099596331
2,1, 1, 1, 0, 9, 0.00,15.00,Tuesday
7,-9.725
8,2435.255954336698
9,1.0
10,278.97248314719988
11,1.0
12,278.97248314719988
13,2435.255954336698
14,7.02877448167572
15,8.362609060587558
16,6.418449781156028
17,-5.67525892413488
18,6.404005606609138
2,1, 1, 1, 0, 9,15.00,30.00,Tuesday
7,-9.45
8,3230.1064742464639
9,1.0
10,364.91995730569456
11,1.0
12,364.91995730569456
13,3230.1064742464639
14,7.494723470867728
15,13.437621154308758
16,7.817166364918933
17,-4.711308449135913
18,6.629213946138242
2,1, 1, 1, 0, 9,30.00,45.00,Tuesday
7,-9.175
8,3755.9765580695495
9,1.0
10,420.35879993239237
11,1.0
12,420.35879993239237
13,3755.9765580695495
14,7.830179730119719
15,16.194513323176225
16,8.752045878673244
17,-4.115513572382042
18,6.880589534383711
2,1, 1, 1, 0, 9,45.00,60.00,Tuesday
7,-8.9
8,4301.872675476314
9,1.0
10,478.00138373643099
11,1.0
12,478.00138373643099
13,4301.872675476314
14,8.222138278227766
15,19.18875816002604
16,9.677349401241372
17,-3.5008702725059495
18,7.147346806498621
2,1, 1, 1, 0,10, 0.00,15.00,Tuesday
7,-8.350000000000002
8,4859.302038083674
9,1.0
10,536.9185644770597
11,1.0
12,536.9185644770597
13,4859.302038083674
14,8.563417806670135
15,20.30338471008684
16,10.635542001640545
17,-2.83985279971364
18,7.429644375772947
2,1, 1, 1, 0,10,15.00,30.00,Tuesday
7,-7.800000000000001
8,5435.988910961537
9,1.0
10,598.0969199229219
11,1.0
12,598.0969199229219
13,5435.988910961537
14,8.935701866546753
15,21.55418998132535
16,11.61047724271225
17,-2.17773886783948
18,7.561453647735033
2,1, 1, 1, 0,10,30.00,45.00,Tuesday
7,-7.25
8,5814.3021928077
9,1.0
10,637.6133352894237
11,1.0
12,637.6133352894237
13,5814.3021928077
14,9.187363517899293
15,21.610635072251357
16,12.306168526642182
17,-1.7079734530544784
18,7.816835803528355
2,1, 1, 1, 0,10,45.00,60.00,Tuesday
7,-6.7
8,6187.043120951907
9,1.0
10,676.6412284283772
11,1.0
12,676.6412284283772
13,6187.043120951907
14,9.431807310115302
15,21.768047716450736
16,12.943583659245178
17,-1.2438802440155997
18,8.005165141753104
2,1, 1, 1, 0,11, 0.00,15.00,Tuesday
7,-6.275
8,6553.002941260844
9,1.0
10,715.0112779846514
11,1.0
12,715.0112779846514
13,6553.002941260844
14,9.825217601220493
15,23.86745891140594
16,13.64848451397836
17,-0.5591703513762241
18,8.446306946831149
2,1, 1, 1, 0,11,15.00,30.00,Tuesday
7,-5.85
8,6910.34852156297
9,1.0
10,752.5077794605232
11,1.0
12,752.5077794605232
13,6910.34852156297
14,10.26992048000657
15,25.804605235164638
16,14.404955046523867
17,0.11478262288051156
18,8.862000197228254
2,1, 1, 1, 0,11,30.00,45.00,Tuesday
7,-5.425
8,6804.1459822737
9,1.0
10,742.5988714321785
11,1.0
12,742.5988714321785
13,6804.1459822737
14,10.54069884080754
15,25.656506430186757
16,14.640052819030416
17,0.42483724526402968
18,9.241047550601703
2,1, 1, 1, 0,11,45.00,60.00,Tuesday
7,-5.0
8,6652.394939438446
9,1.0
10,727.8169025450712
11,1.0
12,727.8169025450712
13,6652.394939438446
14,10.795618027487296
15,25.42811611793323
16,14.775872034033569
17,0.7038971967812699
18,9.573692572276484
2,1, 1, 1, 0,12, 0.00,15.00,Tuesday
7,-4.575
8,6391.429124855545
9,1.0
10,700.3759009170325
11,1.0
12,700.3759009170325
13,6391.429124855545
14,10.977202857838958
15,24.686084581675414
16,14.762007521257033
17,0.9310176695341284
18,9.858901589939814
2,1, 1, 1, 0,12,15.00,30.00,Tuesday
7,-4.15
8,6197.889213577475
9,1.0
10,681.6705029034473
11,1.0
12,681.6705029034473
13,6197.889213577475
14,11.146578407379668
15,24.355412645551867
16,14.798980854406523
17,1.218685336330509
18,10.10817499793331
2,1, 1, 1, 0,12,30.00,45.00,Tuesday
7,-3.7249999999999998
8,5441.230537820667
9,1.0
10,602.01865277251
11,1.0
12,602.01865277251
13,5441.230537820667
14,11.090770801145754
15,21.328166959943276
16,14.158055106262737
17,1.0660148047735448
18,10.297293212981675
2,1, 1, 1, 0,12,45.00,60.00,Tuesday
7,-3.3
8,4443.921330166826
9,1.0
10,493.55004396206007
11,1.0
12,493.55004396206007
13,4443.921330166826
14,10.895906641422704
15,17.150187717142925
16,13.077656574882383
17,0.6767098389789226
18,10.398011329143469
2,1, 1, 1, 0,13, 0.00,15.00,Tuesday
7,-3.0249999999999996
8,3669.32900909151
9,1.0
10,412.335026418112
11,1.0
12,412.335026418112
13,3669.32900909151
14,10.762348512410656
15,14.306908973886264
16,12.204357625482146
17,0.4212051893150033
18,10.427852494500027
2,1, 1, 1, 0,13,15.00,30.00,Tuesday
7,-2.75
8,2687.44564505721
9,1.0
10,305.94037763660148
11,1.0
12,305.94037763660148
13,2687.44564505721
14,10.440662670931302
15,10.134357150510385
16,10.970065409197673
17,-0.04819371548893514
18,10.397348973838083
2,1, 1, 1, 0,13,30.00,45.00,Tuesday
7,-2.475
8,2453.542741955779
9,1.0
10,281.0763483922329
11,1.0
12,281.0763483922329
13,2453.542741955779
14,10.412176429889126
15,9.622721064679578
16,10.661950330787136
17,0.08647597505785143
18,10.34837359327776
2,1, 1, 1, 0,13,45.00,60.00,Tuesday
7,-2.2
8,2224.512359605971
9,1.0
10,256.7721209415886
11,1.0
12,256.7721209415886
13,2224.512359605971
14,10.375445444080313
15,9.01649499622645
16,10.436330010150641
17,0.24615780532951704
18,10.30681273205868
2,1, 1, 1, 0,14, 0.00,15.00,Tuesday
7,-1.9250000000000003
8,1817.2003545434614
9,1.0
10,210.73276284570657
11,1.0
12,210.73276284570657
13,1817.2003545434614
14,10.221167827001996
15,7.4697639158769359
16,9.893000155956145
17,0.18963214999479306
18,10.269426833680209
2,1, 1, 1, 0,14,15.00,30.00,Tuesday
7,-1.6500000000000002
8,1614.2604980244185
9,1.0
10,189.38488290342594
11,1.0
12,189.38488290342594
13,1614.2604980244185
14,10.183320722238055
15,7.0669979065037629
16,9.650957835746226
17,0.3373282721335613
18,10.235666572852944
2,1, 1, 1, 0,14,30.00,45.00,Tuesday
7,-1.375
8,1539.5476742552767
9,1.0
10,179.3940297802914
11,1.0
12,179.3940297802914
13,1539.5476742552767
14,10.170986324076515
15,7.1910638002975679
16,9.602422427468526
17,0.580013453095944
18,10.20678253624653
2,1, 1, 1, 0,14,45.00,60.00,Tuesday
7,-1.1
8,1463.9812974442276
9,1.0
10,169.43349014176136
11,1.0
12,169.43349014176136
13,1463.9812974442276
14,10.154827728446769
15,7.291359969250604
16,9.54688323289463
17,0.8209782152702019
18,10.182161825775838
2,1, 1, 1, 0,15, 0.00,15.00,Tuesday
7,-1.1
8,1540.932160744696
9,1.0
10,178.15692317953907
11,1.0
12,178.15692317953907
13,1540.932160744696
14,10.218976742440982
15,8.110569575265929
16,9.669291200365251
17,0.9535547375392639
18,10.16582352300796
2,1, 1, 1, 0,15,15.00,30.00,Tuesday
7,-1.1
8,1447.6634452644749
9,1.0
10,166.40516310952945
11,1.0
12,166.40516310952945
13,1447.6634452644749
14,10.164945308880724
15,7.748497776665829
16,9.539425141659649
17,0.9090197943099838
18,10.15223388170142
2,1, 1, 1, 0,15,30.00,45.00,Tuesday
7,-1.1
8,1220.6438058846866
9,1.0
10,140.8967369711617
11,1.0
12,140.8967369711617
13,1220.6438058846866
14,10.032502717719448
15,6.539755573965046
16,9.180403283597628
17,0.7121658737461303
18,10.130946530099643
2,1, 1, 1, 0,15,45.00,60.00,Tuesday
7,-1.1
8,1004.4903719223667
9,1.0
10,116.57355796743004
11,1.0
12,116.57355796743004
13,1004.4903719223667
14,9.92238590833118
15,5.338475127965645
16,8.821082609873656
17,0.5066443345336893
18,10.088697600836519
2,1, 1, 1, 0,16, 0.00,15.00,Tuesday
7,-1.1
8,797.2208701523971
9,1.0
10,93.14939272689483
11,1.0
12,93.14939272689483
13,797.2208701523971
14,9.809093450496297
15,4.289346794827377
16,8.502625902187163
17,0.38589393451422895
18,10.02371706116012
2,1, 1, 1, 0,16,15.00,30.00,Tuesday
7,-1.1
8,494.91616074035127
9,1.0
10,57.94047897402063
11,1.0
12,57.94047897402063
13,494.91616074035127
14,9.602345072791954
15,2.1688082399318104
16,8.010714541912194
17,0.12605291314696388
18,9.932506468020318
2,1, 1, 1, 0,16,30.00,45.00,Tuesday
7,-1.1
8,383.7216918055977
9,1.0
10,45.38251793443488
11,1.0
12,45.38251793443488
13,383.7216918055977
14,9.518147570710753
15,1.56238237369651
16,7.790307845007419
17,0.09606198889173356
18,9.831007456602551
2,1, 1, 1, 0,16,45.00,60.00,Tuesday
7,-1.1
8,267.8631625630713
9,1.0
10,32.02625108222755
11,1.0
12,32.02625108222755
13,267.8631625630713
14,9.394844703020027
15,0.7040234120660002
16,7.586814320048745
17,0.06464272618256928
18,9.732087258069879
2,1, 1, 1, 0,17, 0.00,15.00,Tuesday
7,-1.1
8,146.92256949659515
9,1.0
10,17.762198626050539
11,1.0
12,17.762198626050539
13,146.92256949659515
14,9.247734477534447
15,-0.5405282301881983
16,7.331822317708543
17,-0.07632420775041737
18,9.633968096348879
2,1, 1, 1, 0,17,15.00,30.00,Tuesday
7,-1.1
8,0.0
9,0.0
10,0.0
11,0.0
12,0.0
13,0.0
14,9.050578192256405
15,-2.3746232818914625
16,6.998754892063857
17,-0.3399331141656603
18,9.523424204755705
2,1, 1, 1, 0,17,30.00,45.00,Tuesday
7,-1.1
8,0.0
9,0.0
10,0.0
11,0.0
12,0.0
13,0.0
14,8.988806843350542
15,-2.50737945569664
16,6.911790512261064
17,-0.31081635765229978
18,9.415622705189368
2,1, 1, 1, 0,17,45.00,60.00,Tuesday
7,-1.1
8,0.0
9,0.0
10,0.0
11,0.0
12,0.0
13,0.0
14,8.910948905905679
15,-2.692844528240397
16,6.866303180560237
17,-0.2668575488718261
18,9.324694671385242
2,1, 1, 1, 0,18, 0.00,15.00,Tuesday
7,-1.25
8,0.0
9,0.0
10,0.0
11,0.0
12,0.0
13,0.0
14,8.844588918181435
15,-2.841406456240003
16,6.771388109741167
17,-0.40967091479842568
18,9.251062278140733
2,1, 1, 1, 0,18,15.00,30.00,Tuesday
7,-1.4
8,0.0
9,0.0
10,0.0
11,0.0
12,0.0
13,0.0
14,8.78384136812046
15,-2.9938725190118986
16,6.6930659023958019
17,-0.537644066478947
18,9.189077238234776
2,1, 1, 1, 0,18,30.00,45.00,Tuesday
7,-1.5499999999999999
8,0.0
9,0.0
10,0.0
11,0.0
12,0.0
13,0.0
14,8.727273678061636
15,-3.1459619196389019
16,6.61695511665846
17,-0.6696772225358245
18,9.13321596755902
2,1, 1, 1, 0,18,45.00,60.00,Tuesday
7,-1.7
8,0.0
9,0.0
10,0.0
11,0.0
12,0.0
13,0.0
14,8.672646427461613
15,-3.2982196979824538
16,6.543780673375977
17,-0.8009559580991663
18,9.080134662218608
2,1, 1, 1, 0,19, 0.00,15.00,Tuesday
7,-1.825
8,0.0
9,0.0
10,0.0
11,0.0
12,0.0
13,0.0
14,8.641781163406458
15,-3.1594604042442699
16,6.454066612875067
17,-0.9876243945875558
18,9.031669597462092
2,1, 1, 1, 0,19,15.00,30.00,Tuesday
7,-1.9500000000000002
8,0.0
9,0.0
10,0.0
11,0.0
12,0.0
13,0.0
14,8.609634195427283
15,-3.100988404196402
16,6.380570549024924
17,-1.158651644122756
18,8.989600524452314
2,1, 1, 1, 0,19,30.00,45.00,Tuesday
7,-2.075
8,0.0
9,0.0
10,0.0
11,0.0
12,0.0
13,0.0
14,8.573410280932447
15,-3.1770589618398654
16,6.3250070796896129
17,-1.2821135052946602
18,8.952593773280063
2,1, 1, 1, 0,19,45.00,60.00,Tuesday
7,-2.2
8,0.0
9,0.0
10,0.0
11,0.0
12,0.0
13,0.0
14,8.539861446572133
15,-3.162109525884296
16,6.2559897533742518
17,-1.4442682446224922
18,8.917594948335605
2,1, 1, 1, 0,20, 0.00,15.00,Tuesday
7,-1.9250000000000003
8,0.0
9,0.0
10,0.0
11,0.0
12,0.0
13,0.0
14,8.522022305599752
15,-2.862740784513254
16,6.289621360367278
17,-1.2443877171598388
18,8.885257264196458
2,1, 1, 1, 0,20,15.00,30.00,Tuesday
7,-1.6500000000000002
8,0.0
9,0.0
10,0.0
11,0.0
12,0.0
13,0.0
14,8.504603268764518
15,-2.566189844998203
16,6.321010969921531
17,-1.032941901980621
18,8.856194977087558
2,1, 1, 1, 0,20,30.00,45.00,Tuesday
7,-1.375
8,0.0
9,0.0
10,0.0
11,0.0
12,0.0
13,0.0
14,8.489017714975664
15,-2.270840051073757
16,6.354039551746496
17,-0.8190717168051833
18,8.83001912601665
2,1, 1, 1, 0,20,45.00,60.00,Tuesday
7,-1.1
8,0.0
9,0.0
10,0.0
11,0.0
12,0.0
13,0.0
14,8.475034692678332
15,-1.976679136957067
16,6.38915585753216
17,-0.6029211772398071
18,8.806005204331124
2,1, 1, 1, 0,21, 0.00,15.00,Tuesday
7,-1.25
8,0.0
9,0.0
10,0.0
11,0.0
12,0.0
13,0.0
14,8.42183537833955
15,-2.250375277056218
16,6.350636550850538
17,-0.6621114709938638
18,8.777439522812234
2,1, 1, 1, 0,21,15.00,30.00,Tuesday
7,-1.4
8,0.0
9,0.0
10,0.0
11,0.0
12,0.0
13,0.0
14,8.369392095676416
15,-2.4629790071595187
16,6.295108368255683
17,-0.7504854553276346
18,8.739733420304589
2,1, 1, 1, 0,21,30.00,45.00,Tuesday
7,-1.5499999999999999
8,0.0
9,0.0
10,0.0
11,0.0
12,0.0
13,0.0
14,8.304119616133166
15,-2.7973969619874365
16,6.249322305919463
17,-0.7974588620102736
18,8.692244008498218
2,1, 1, 1, 0,21,45.00,60.00,Tuesday
7,-1.7
8,0.0
9,0.0
10,0.0
11,0.0
12,0.0
13,0.0
14,8.233586933800824
15,-3.23787090688714
16,6.204339309727061
17,-0.8128085052790084
18,8.63733722775691
2,1, 1, 1, 0,22, 0.00,15.00,Tuesday
7,-1.5499999999999999
8,0.0
9,0.0
10,0.0
11,0.0
12,0.0
13,0.0
14,8.228649210481523
15,-2.763766675718798
16,6.159324795661291
17,-0.8123963683465263
18,8.58826580103335
2,1, 1, 1, 0,22,15.00,30.00,Tuesday
7,-1.4
8,0.0
9,0.0
10,0.0
11,0.0
12,0.0
13,0.0
14,8.212393458059122
15,-2.442758757859769
16,6.154509777799603
17,-0.7799623695960918
18,8.551927380041308
2,1, 1, 1, 0,22,30.00,45.00,Tuesday
7,-1.25
8,0.0
9,0.0
10,0.0
11,0.0
12,0.0
13,0.0
14,8.196628054593349
15,-2.2266929042916865
16,6.154655232443474
17,-0.689728671653711
18,8.525866208681093
2,1, 1, 1, 0,22,45.00,60.00,Tuesday
7,-1.1
8,0.0
9,0.0
10,0.0
11,0.0
12,0.0
13,0.0
14,8.18466669023428
15,-1.9514851130095883
16,6.153825814259335
17,-0.6234511414505732
18,8.504830137736294
2,1, 1, 1, 0,23, 0.00,15.00,Tuesday
7,-1.25
8,0.0
9,0.0
10,0.0
11,0.0
12,0.0
13,0.0
14,8.130666404531697
15,-2.254738874051587
16,6.059965699879285
17,-0.901127270141842
18,8.478436273501832
2,1, 1, 1, 0,23,15.00,30.00,Tuesday
7,-1.4
8,0.0
9,0.0
10,0.0
11,0.0
12,0.0
13,0.0
14,8.078835809755212
15,-2.5594330052015978
16,5.9542817177995179
17,-1.1925609271784197
18,8.44181141751907
2,1, 1, 1, 0,23,30.00,45.00,Tuesday
7,-1.5499999999999999
8,0.0
9,0.0
10,0.0
11,0.0
12,0.0
13,0.0
14,8.022188089409229
15,-2.864772410719558
16,5.846581770506077
17,-1.4855383291762792
18,8.3963244241318
2,1, 1, 1, 0,23,45.00,60.00,Tuesday
7,-1.7
8,0.0
9,0.0
10,0.0
11,0.0
12,0.0
13,0.0
14,7.961640258533473
15,-3.170456324345324
16,5.7347046497188789
17,-1.7805274229125417
18,8.34505095160348
2,1, 1, 1, 0,24, 0.00,15.00,Tuesday
7,-1.7
8,0.0
9,0.0
10,0.0
11,0.0
12,0.0
13,0.0
14,7.916737889201438
15,-3.224688502611114
16,5.678863247300683
17,-1.8486290271796407
18,8.29358636488986
2,1, 1, 1, 0,24,15.00,30.00,Tuesday
7,-1.7
8,0.0
9,0.0
10,0.0
11,0.0
12,0.0
13,0.0
14,7.869823990403258
15,-3.279473747138302
16,5.627930931861158
17,-1.9120383862580184
18,8.244818775002609
2,1, 1, 1, 0,24,30.00,45.00,Tuesday
7,-1.7
8,0.0
9,0.0
10,0.0
11,0.0
12,0.0
13,0.0
14,7.824081446341259
15,-3.3341513620407805
16,5.576866691353587
17,-1.975168959846883
18,8.198618691859675
2,1, 1, 1, 0,24,45.00,60.00,Tuesday
7,-1.7
8,0.0
9,0.0
10,0.0
11,0.0
12,0.0
13,0.0
14,7.77919321430087
15,-3.388832837087155
16,5.526774316801379
17,-2.037922802623825
18,8.153900635213266
End of Data
 Number of Records Written=        1152
