Program Version,EnergyPlus, Version 9.5.0-de239b2e5f, YMD=2022.11.08 09:47
1,5,Environment Title[],Latitude[deg],Longitude[deg],Time Zone[],Elevation[m]
2,8,Day of Simulation[],Month[],Day of Month[],DST Indicator[1=yes 0=no],Hour[],StartMinute[],EndMinute[],DayType
3,5,Cumulative Day of Simulation[],Month[],Day of Month[],DST Indicator[1=yes 0=no],DayType  ! When Daily Report Variables Requested
4,2,Cumulative Days of Simulation[],Month[]  ! When Monthly Report Variables Requested
5,1,Cumulative Days of Simulation[] ! When Run Period Report Variables Requested
6,1,Calendar Year of Simulation[] ! When Annual Report Variables Requested
7,1,Environment,Site Outdoor Air Drybulb Temperature [C] !TimeStep
8,1,ZONE ONE,Zone Windows Total Transmitted Solar Radiation Rate [W] !TimeStep
9,1,ZN001:WALL001,Surface Outside Face Sunlit Fraction [] !TimeStep
10,1,ZN001:WALL001,Surface Outside Face Incident Solar Radiation Rate per Area [W/m2] !TimeStep
11,1,ZN001:WALL001:WIN001,Surface Outside Face Sunlit Fraction [] !TimeStep
12,1,ZN001:WALL001:WIN001,Surface Outside Face Incident Solar Radiation Rate per Area [W/m2] !TimeStep
13,1,ZN001:WALL001:WIN001,Surface Window Transmitted Solar Radiation Rate [W] !TimeStep
14,1,ZN001:WALL001,Surface Inside Face Temperature [C] !TimeStep
15,1,ZN001:WALL001,Surface Outside Face Temperature [C] !TimeStep
16,1,ZN001:WALL001:WIN001,Surface Inside Face Temperature [C] !TimeStep
17,1,ZN001:WALL001:WIN001,Surface Outside Face Temperature [C] !TimeStep
18,1,ZONE ONE,Zone Mean Air Temperature [C] !TimeStep
End of Data Dictionary
1,RUN PERIOD 1,  41.98, -87.92,  -6.00, 201.00
2,1, 1, 1, 0, 1, 0.00,15.00,Tuesday
7,-4.324999999999999
8,0.0
9,0.0
10,0.0
11,0.0
12,0.0
13,0.0
14,6.061826388059896
15,-5.893535290075598
16,3.711718988715461
17,-4.357293845563333
18,6.525712722274764
2,1, 1, 1, 0, 1,15.00,30.00,Tuesday
7,-6.949999999999999
8,0.0
9,0.0
10,0.0
11,0.0
12,0.0
13,0.0
14,5.879484056217031
15,-8.360938931335268
16,3.106842477329451
17,-6.444880780742892
18,6.427134624387766
2,1, 1, 1, 0, 1,30.00,45.00,Tuesday
7,-9.575
8,0.0
9,0.0
10,0.0
11,0.0
12,0.0
13,0.0
14,5.677143825838333
15,-10.83631429305342
16,2.495954560150608
17,-8.53880864400088
18,6.296781599391789
2,1, 1, 1, 0, 1,45.00,60.00,Tuesday
7,-12.2
8,0.0
9,0.0
10,0.0
11,0.0
12,0.0
13,0.0
14,5.458943984159949
15,-13.318310587013113
16,1.870274323574904
17,-10.640403546316862
18,6.144382762737405
2,1, 1, 1, 0, 2, 0.00,15.00,Tuesday
7,-12.075
8,0.0
9,0.0
10,0.0
11,0.0
12,0.0
13,0.0
14,5.389812566259421
15,-13.119279373086375
16,1.8005793994326496
17,-10.482431856737492
18,6.006990294474541
2,1, 1, 1, 0, 2,15.00,30.00,Tuesday
7,-11.95
8,0.0
9,0.0
10,0.0
11,0.0
12,0.0
13,0.0
14,5.3071685382686539
15,-12.942226918518515
16,1.7659789711383383
17,-10.337814232421465
18,5.901542196720469
2,1, 1, 1, 0, 2,30.00,45.00,Tuesday
7,-11.825
8,0.0
9,0.0
10,0.0
11,0.0
12,0.0
13,0.0
14,5.241709419788131
15,-12.764014727215434
16,1.737044324647286
17,-10.192785496481975
18,5.822596023892509
2,1, 1, 1, 0, 2,45.00,60.00,Tuesday
7,-11.7
8,0.0
9,0.0
10,0.0
11,0.0
12,0.0
13,0.0
14,5.18742808883916
15,-12.585882832971644
16,1.720801087468658
17,-10.045113475121753
18,5.759116892690644
2,1, 1, 1, 0, 3, 0.00,15.00,Tuesday
7,-11.549999999999999
8,0.0
9,0.0
10,0.0
11,0.0
12,0.0
13,0.0
14,5.134860364236179
15,-12.459528596318388
16,1.7153493668246825
17,-9.907805925013463
18,5.702242710433741
2,1, 1, 1, 0, 3,15.00,30.00,Tuesday
7,-11.399999999999999
8,0.0
9,0.0
10,0.0
11,0.0
12,0.0
13,0.0
14,5.085385389599228
15,-12.33452954051946
16,1.7047932531518769
17,-9.750996645853661
18,5.647510886449985
2,1, 1, 1, 0, 3,30.00,45.00,Tuesday
7,-11.25
8,0.0
9,0.0
10,0.0
11,0.0
12,0.0
13,0.0
14,5.036848601743924
15,-12.211043164862359
16,1.7028323508545782
17,-9.612631820293359
18,5.593743858661756
2,1, 1, 1, 0, 3,45.00,60.00,Tuesday
7,-11.1
8,0.0
9,0.0
10,0.0
11,0.0
12,0.0
13,0.0
14,4.9887133201923989
15,-12.089119604507616
16,1.6946015842621592
17,-9.456188014336988
18,5.540735466542167
2,1, 1, 1, 0, 4, 0.00,15.00,Tuesday
7,-11.1
8,0.0
9,0.0
10,0.0
11,0.0
12,0.0
13,0.0
14,4.936894408227147
15,-12.061106626411498
16,1.6407717765857797
17,-9.493540155939172
18,5.487639864868375
2,1, 1, 1, 0, 4,15.00,30.00,Tuesday
7,-11.1
8,0.0
9,0.0
10,0.0
11,0.0
12,0.0
13,0.0
14,4.885455082521859
15,-12.034171275593348
16,1.5900918702973286
17,-9.529963536981768
18,5.434121597790303
2,1, 1, 1, 0, 4,30.00,45.00,Tuesday
7,-11.1
8,0.0
9,0.0
10,0.0
11,0.0
12,0.0
13,0.0
14,4.833840253485003
15,-12.008750297607527
16,1.5397819351443332
17,-9.565433519276099
18,5.380297713769798
2,1, 1, 1, 0, 4,45.00,60.00,Tuesday
7,-11.1
8,0.0
9,0.0
10,0.0
11,0.0
12,0.0
13,0.0
14,4.782155211826455
15,-11.98471354971074
16,1.4896693564004978
17,-9.599870472360522
18,5.326383711291789
2,1, 1, 1, 0, 5, 0.00,15.00,Tuesday
7,-10.975
8,0.0
9,0.0
10,0.0
11,0.0
12,0.0
13,0.0
14,4.736094745757021
15,-11.862779473306946
16,1.4763484057540382
17,-9.513750224974502
18,5.273590825489197
2,1, 1, 1, 0, 5,15.00,30.00,Tuesday
7,-10.85
8,0.0
9,0.0
10,0.0
11,0.0
12,0.0
13,0.0
14,4.690252984899193
15,-11.740914589797546
16,1.4608800325551102
17,-9.41958943845043
18,5.222404674751311
2,1, 1, 1, 0, 5,30.00,45.00,Tuesday
7,-10.725
8,0.0
9,0.0
10,0.0
11,0.0
12,0.0
13,0.0
14,4.645442369505173
15,-11.619027068698895
16,1.445697657794767
17,-9.324580931802587
18,5.172595876445061
2,1, 1, 1, 0, 5,45.00,60.00,Tuesday
7,-10.6
8,0.0
9,0.0
10,0.0
11,0.0
12,0.0
13,0.0
14,4.601490002340177
15,-11.497149015546056
16,1.4313200810434524
17,-9.22933597060728
18,5.123785407877606
2,1, 1, 1, 0, 6, 0.00,15.00,Tuesday
7,-10.6
8,0.0
9,0.0
10,0.0
11,0.0
12,0.0
13,0.0
14,4.550574060708048
15,-11.498143805861722
16,1.3880323089267109
17,-9.23070976497354
18,5.074369760989921
2,1, 1, 1, 0, 6,15.00,30.00,Tuesday
7,-10.6
8,0.0
9,0.0
10,0.0
11,0.0
12,0.0
13,0.0
14,4.500293139413793
15,-11.499085516693253
16,1.3457947148859262
17,-9.238722923687647
18,5.023640547272226
2,1, 1, 1, 0, 6,30.00,45.00,Tuesday
7,-10.6
8,0.0
9,0.0
10,0.0
11,0.0
12,0.0
13,0.0
14,4.449478037972674
15,-11.50006928126981
16,1.3037433675060584
17,-9.247319439449825
18,4.971880170653626
2,1, 1, 1, 0, 6,45.00,60.00,Tuesday
7,-10.6
8,0.0
9,0.0
10,0.0
11,0.0
12,0.0
13,0.0
14,4.398354561154278
15,-11.5010509470813
16,1.261332564068823
17,-9.256062540357675
18,4.919604488126725
2,1, 1, 1, 0, 7, 0.00,15.00,Tuesday
7,-10.6
8,0.0
9,0.0
10,0.0
11,0.0
12,0.0
13,0.0
14,4.349204493392166
15,-11.477893761727179
16,1.2124190886856923
17,-9.285337408214332
18,4.8674789646962399
2,1, 1, 1, 0, 7,15.00,30.00,Tuesday
7,-10.6
8,0.0
9,0.0
10,0.0
11,0.0
12,0.0
13,0.0
14,4.299939618283025
15,-11.455937302868169
16,1.1653858934669188
17,-9.314809478844382
18,4.81584846178667
2,1, 1, 1, 0, 7,30.00,45.00,Tuesday
7,-10.6
8,0.0
9,0.0
10,0.0
11,0.0
12,0.0
13,0.0
14,4.2509691351015779
15,-11.435098270542272
16,1.118796573722534
17,-9.343503843262625
18,4.7646960742949029
2,1, 1, 1, 0, 7,45.00,60.00,Tuesday
7,-10.6
8,0.0
9,0.0
10,0.0
11,0.0
12,0.0
13,0.0
14,4.202299943587519
15,-11.415310373271291
16,1.0727040537333324
17,-9.371282046231727
18,4.713909355639263
2,1, 1, 1, 0, 8, 0.00,15.00,Tuesday
7,-10.45
8,0.0
9,0.0
10,0.0
11,0.0
12,0.0
13,0.0
14,4.15306912349931
15,-11.366049701053259
16,1.0513089112341732
17,-9.319848248307779
18,4.663167809492799
2,1, 1, 1, 0, 8,15.00,30.00,Tuesday
7,-10.3
8,161.35837051555706
9,1.0
10,22.819555959623899
11,1.0
12,22.819555959623899
13,161.35837051555706
14,4.224903108970631
15,-9.692404734745596
16,1.3513292444022227
17,-8.990339131123733
18,4.6307894988665299
2,1, 1, 1, 0, 8,30.00,45.00,Tuesday
7,-10.15
8,792.2712165894634
9,1.0
10,109.75755355442667
11,1.0
12,109.75755355442667
13,792.2712165894634
14,4.627052155983802
15,-3.3215799489408996
16,2.629250850339531
17,-7.868924632682365
18,4.667871769856977
2,1, 1, 1, 0, 8,45.00,60.00,Tuesday
7,-10.0
8,1440.6601545318372
9,1.0
10,195.8764694434918
11,1.0
12,195.8764694434918
13,1440.6601545318372
14,5.138760517873176
15,3.16094500152019
16,4.046176010886711
17,-6.747438244712384
18,4.781733485036672
2,1, 1, 1, 0, 9, 0.00,15.00,Tuesday
7,-9.725
8,2086.815791433466
9,1.0
10,278.97248314719988
11,1.0
12,278.97248314719988
13,2086.815791433466
14,5.5650617877565768
15,8.337577308154554
16,5.517367636591757
17,-5.7257826814475269
18,4.949339898657029
2,1, 1, 1, 0, 9,15.00,30.00,Tuesday
7,-9.45
8,2767.937877930177
9,1.0
10,364.91995730569456
11,1.0
12,364.91995730569456
13,2767.937877930177
14,6.008353792777916
15,13.414899308233313
16,6.944973393285409
17,-4.709680502204151
18,5.162126282006206
2,1, 1, 1, 0, 9,30.00,45.00,Tuesday
7,-9.175
8,3218.5656623334496
9,1.0
10,420.35879993239237
11,1.0
12,420.35879993239237
13,3218.5656623334496
14,6.323255999836885
15,16.17236382586035
16,7.9056306706934269
17,-4.081779682561887
18,5.400054511373575
2,1, 1, 1, 0, 9,45.00,60.00,Tuesday
7,-8.9
8,3686.35412467191
9,1.0
10,478.00138373643099
11,1.0
12,478.00138373643099
13,3686.35412467191
14,6.69215496083266
15,19.166984652609167
16,8.860164832644387
17,-3.4325403256676738
18,5.6525250645511779
2,1, 1, 1, 0,10, 0.00,15.00,Tuesday
7,-8.350000000000002
8,4164.025637771185
9,1.0
10,536.9185644770597
11,1.0
12,536.9185644770597
13,4164.025637771185
14,7.008200112282377
15,20.28314355510689
16,9.845104122944179
17,-2.743011588304796
18,5.919518996082247
2,1, 1, 1, 0,10,15.00,30.00,Tuesday
7,-7.800000000000001
8,4658.1992669896449
9,1.0
10,598.0969199229219
11,1.0
12,598.0969199229219
13,4658.1992669896449
14,7.353332756301094
15,21.5350777742919
16,10.846242572964343
17,-2.0550009701390765
18,6.20695259675003
2,1, 1, 1, 0,10,30.00,45.00,Tuesday
7,-7.25
8,4982.382903317499
9,1.0
10,637.6133352894237
11,1.0
12,637.6133352894237
13,4982.382903317499
14,7.621808023491195
15,21.59379419264546
16,11.57348314273304
17,-1.5693556994112328
18,6.3280126785215009
2,1, 1, 1, 0,10,45.00,60.00,Tuesday
7,-6.7
8,5301.791486872173
9,1.0
10,676.6412284283772
11,1.0
12,676.6412284283772
13,5301.791486872173
14,7.869618730823627
15,21.75198778098261
16,12.249301167414729
17,-1.0902372770020748
18,6.565601773936487
2,1, 1, 1, 0,11, 0.00,15.00,Tuesday
7,-6.275
8,5615.389213918317
9,1.0
10,715.0112779846514
11,1.0
12,715.0112779846514
13,5615.389213918317
14,8.166119028345966
15,23.84879686018347
16,12.936951563753667
17,-0.3917295492477706
18,6.749025542047709
2,1, 1, 1, 0,11,15.00,30.00,Tuesday
7,-5.85
8,5921.605239651143
9,1.0
10,752.5077794605232
11,1.0
12,752.5077794605232
13,5921.605239651143
14,8.527360479017882
15,25.785525603985158
16,13.650397221341393
17,0.29205028128490087
18,7.177760128874338
2,1, 1, 1, 0,11,30.00,45.00,Tuesday
7,-5.425
8,5830.598322830703
9,1.0
10,742.5988714321785
11,1.0
12,742.5988714321785
13,5830.598322830703
14,8.803856676618317
15,25.639066778829716
16,13.853609972141385
17,0.5932193058866346
18,7.5563584699841279
2,1, 1, 1, 0,11,45.00,60.00,Tuesday
7,-5.0
8,5700.56005232106
9,1.0
10,727.8169025450712
11,1.0
12,727.8169025450712
13,5700.56005232106
14,9.043426903884594
15,25.409994541647696
16,13.970849910523839
17,0.8633778337315334
18,7.877355340111821
2,1, 1, 1, 0,12, 0.00,15.00,Tuesday
7,-4.575
8,5476.933627376762
9,1.0
10,700.3759009170325
11,1.0
12,700.3759009170325
13,5476.933627376762
14,9.21225546986845
15,24.667814242613834
16,13.924542694758998
17,1.075263225173785
18,8.147620269762913
2,1, 1, 1, 0,12,15.00,30.00,Tuesday
7,-4.15
8,5311.08570391442
9,1.0
10,681.6705029034473
11,1.0
12,681.6705029034473
13,5311.08570391442
14,9.367272363914788
15,24.336949360301298
16,13.932936375577583
17,1.3498193113399566
18,8.381126221151816
2,1, 1, 1, 0,12,30.00,45.00,Tuesday
7,-3.7249999999999998
8,4662.690913838073
9,1.0
10,602.01865277251
11,1.0
12,602.01865277251
13,4662.690913838073
14,9.308581064646456
15,21.309614847953193
16,13.220083191411505
17,1.154704822951203
18,8.555992038352932
2,1, 1, 1, 0,12,45.00,60.00,Tuesday
7,-3.3
8,3808.0782396473625
9,1.0
10,493.55004396206007
11,1.0
12,493.55004396206007
13,3808.0782396473625
14,9.12032883621656
15,17.13143511239497
16,12.0603980284925
17,0.7129741770668829
18,8.647052624936487
2,1, 1, 1, 0,13, 0.00,15.00,Tuesday
7,-3.0249999999999996
8,3144.3157777731437
9,1.0
10,412.335026418112
11,1.0
12,412.335026418112
13,3144.3157777731437
14,8.990239635727337
15,14.287746703104294
16,11.127946450713353
17,0.414244672862651
18,8.671248208682656
2,1, 1, 1, 0,13,15.00,30.00,Tuesday
7,-2.75
8,2302.9217938000276
9,1.0
10,305.94037763660148
11,1.0
12,305.94037763660148
13,2302.9217938000276
14,8.68433006517771
15,10.114959138878297
16,9.827829048191007
17,-0.10754624874471119
18,8.638890896608338
2,1, 1, 1, 0,13,30.00,45.00,Tuesday
7,-2.475
8,2102.486077387661
9,1.0
10,281.0763483922329
11,1.0
12,281.0763483922329
13,2102.486077387661
14,8.657811544832992
15,9.602863362661207
16,9.514102836309235
17,0.01399057090657152
18,8.589603851318863
2,1, 1, 1, 0,13,45.00,60.00,Tuesday
7,-2.2
8,1906.2257139727988
9,1.0
10,256.7721209415886
11,1.0
12,256.7721209415886
13,1906.2257139727988
14,8.623757661662119
15,8.996323181669262
16,9.274699200264763
17,0.1600137355710558
18,8.54753149425288
2,1, 1, 1, 0,14, 0.00,15.00,Tuesday
7,-1.9250000000000003
8,1557.1925362932826
9,1.0
10,210.73276284570657
11,1.0
12,210.73276284570657
13,1557.1925362932826
14,8.48026585856244
15,7.4491987474034559
16,8.708063931654408
17,0.08887045404219407
18,8.51003607018586
2,1, 1, 1, 0,14,15.00,30.00,Tuesday
7,-1.6500000000000002
8,1383.2896261941785
9,1.0
10,189.38488290342594
11,1.0
12,189.38488290342594
13,1383.2896261941785
14,8.445540533323252
15,7.044833819531267
16,8.431488278981533
17,0.20951868867081203
18,8.476682328770936
2,1, 1, 1, 0,14,30.00,45.00,Tuesday
7,-1.375
8,1319.266828020951
9,1.0
10,179.3940297802914
11,1.0
12,179.3940297802914
13,1319.266828020951
14,8.438044797244129
15,7.168455758955102
16,8.376952702455469
17,0.44523681152855945
18,8.448985919548479
2,1, 1, 1, 0,14,45.00,60.00,Tuesday
7,-1.1
8,1254.5126044862314
9,1.0
10,169.43349014176136
11,1.0
12,169.43349014176136
13,1254.5126044862314
14,8.425565858194613
15,7.267842340780598
16,8.31531952235639
17,0.6789744267541664
18,8.426419308389204
2,1, 1, 1, 0,15, 0.00,15.00,Tuesday
7,-1.1
8,1320.4532200560764
9,1.0
10,178.15692317953907
11,1.0
12,178.15692317953907
13,1320.4532200560764
14,8.491754532706122
15,8.090177456930278
16,8.461527295592362
17,0.8161202247847541
18,8.411732464246427
2,1, 1, 1, 0,15,15.00,30.00,Tuesday
7,-1.1
8,1240.5295356628936
9,1.0
10,166.40516310952945
11,1.0
12,166.40516310952945
13,1240.5295356628936
14,8.437263762560999
15,7.723187387925407
16,8.309020023680319
17,0.7603787862594231
18,8.40042646458608
2,1, 1, 1, 0,15,30.00,45.00,Tuesday
7,-1.1
8,1045.9922150258563
9,1.0
10,140.8967369711617
11,1.0
12,140.8967369711617
13,1045.9922150258563
14,8.31675882108806
15,6.516450507723055
16,7.912319444981335
17,0.536193212403191
18,8.382331449259315
2,1, 1, 1, 0,15,45.00,60.00,Tuesday
7,-1.1
8,860.7663464429178
9,1.0
10,116.57355796743004
11,1.0
12,116.57355796743004
13,860.7663464429178
14,8.204448127760355
15,5.310356716052162
16,7.523680393342715
17,0.31399148869195417
18,8.345703302290565
2,1, 1, 1, 0,16, 0.00,15.00,Tuesday
7,-1.1
8,683.1532833870028
9,1.0
10,93.14939272689483
11,1.0
12,93.14939272689483
13,683.1532833870028
14,8.100479214939524
15,4.260379699940188
16,7.179362186684557
17,0.16805203588347696
18,8.288957185138584
2,1, 1, 1, 0,16,15.00,30.00,Tuesday
7,-1.1
8,424.1027961881895
9,1.0
10,57.94047897402063
11,1.0
12,57.94047897402063
13,424.1027961881895
14,7.905527777492891
15,2.1372887033961418
16,6.65500691467048
17,-0.12634040446812379
18,8.20483528280092
2,1, 1, 1, 0,16,30.00,45.00,Tuesday
7,-1.1
8,328.8182026819278
9,1.0
10,45.38251793443488
11,1.0
12,45.38251793443488
13,328.8182026819278
14,7.827501450971509
15,1.5279349824755864
16,6.426869676374395
17,-0.17884665771475739
18,8.107870232845894
2,1, 1, 1, 0,16,45.00,60.00,Tuesday
7,-1.1
8,229.53688978138144
9,1.0
10,32.02625108222755
11,1.0
12,32.02625108222755
13,229.53688978138144
14,7.710654181307023
15,0.6661433250955277
16,6.211457847796055
17,-0.23538016323863077
18,8.012015377088553
2,1, 1, 1, 0,17, 0.00,15.00,Tuesday
7,-1.1
8,125.90066255562958
9,1.0
10,17.762198626050539
11,1.0
12,17.762198626050539
13,125.90066255562958
14,7.569230215352269
15,-0.5830186017980248
16,5.9411409098424319
17,-0.4039024232973816
18,7.917029546130072
2,1, 1, 1, 0,17,15.00,30.00,Tuesday
7,-1.1
8,0.0
9,0.0
10,0.0
11,0.0
12,0.0
13,0.0
14,7.378497367529719
15,-2.419287945211779
16,5.598741702856273
17,-0.6834068081367946
18,7.810843290411016
2,1, 1, 1, 0,17,30.00,45.00,Tuesday
7,-1.1
8,0.0
9,0.0
10,0.0
11,0.0
12,0.0
13,0.0
14,7.320774180791672
15,-2.554209309802344
16,5.51132699843788
17,-0.6759785729217356
18,7.707646972219422
2,1, 1, 1, 0,17,45.00,60.00,Tuesday
7,-1.1
8,0.0
9,0.0
10,0.0
11,0.0
12,0.0
13,0.0
14,7.247602691289594
15,-2.743455101800369
16,5.464930340970511
17,-0.6522710749136422
18,7.620803109931783
2,1, 1, 1, 0,18, 0.00,15.00,Tuesday
7,-1.25
8,0.0
9,0.0
10,0.0
11,0.0
12,0.0
13,0.0
14,7.185905881669445
15,-2.8915185373697396
16,5.374402013160534
17,-0.7924012505167184
18,7.550955635918734
2,1, 1, 1, 0,18,15.00,30.00,Tuesday
7,-1.4
8,0.0
9,0.0
10,0.0
11,0.0
12,0.0
13,0.0
14,7.129555812809884
15,-3.0439491975187686
16,5.297856124497173
17,-0.9236962877432688
18,7.492858221388835
2,1, 1, 1, 0,18,30.00,45.00,Tuesday
7,-1.5499999999999999
8,0.0
9,0.0
10,0.0
11,0.0
12,0.0
13,0.0
14,7.0774254517935779
15,-3.1959423054123694
16,5.2256602088518779
17,-1.0541976582564417
18,7.44115931391503
2,1, 1, 1, 0,18,45.00,60.00,Tuesday
7,-1.7
8,0.0
9,0.0
10,0.0
11,0.0
12,0.0
13,0.0
14,7.0273057194610069
15,-3.3481038677389938
16,5.1563318936318869
17,-1.1839812724414288
18,7.392500762351919
2,1, 1, 1, 0,19, 0.00,15.00,Tuesday
7,-1.825
8,0.0
9,0.0
10,0.0
11,0.0
12,0.0
13,0.0
14,7.001826255955266
15,-3.203502085929598
16,5.079906343634832
17,-1.3372430395578477
18,7.3487037969831638
2,1, 1, 1, 0,19,15.00,30.00,Tuesday
7,-1.9500000000000002
8,0.0
9,0.0
10,0.0
11,0.0
12,0.0
13,0.0
14,6.9752054647048269
15,-3.1399059579617858
16,5.016380507383815
17,-1.4821843825009183
18,7.311549261618931
2,1, 1, 1, 0,19,30.00,45.00,Tuesday
7,-2.075
8,0.0
9,0.0
10,0.0
11,0.0
12,0.0
13,0.0
14,6.944208894122209
15,-3.214572800298523
16,4.9658679792463549
17,-1.5977119907397537
18,7.279632444647119
2,1, 1, 1, 0,19,45.00,60.00,Tuesday
7,-2.2
8,0.0
9,0.0
10,0.0
11,0.0
12,0.0
13,0.0
14,6.916071638166732
15,-3.1951517070050614
16,4.906857306549682
17,-1.7374213820642127
18,7.249910510756158
2,1, 1, 1, 0,20, 0.00,15.00,Tuesday
7,-1.9250000000000003
8,0.0
9,0.0
10,0.0
11,0.0
12,0.0
13,0.0
14,6.903698915855525
15,-2.8946760109194336
16,4.9460981427885148
17,-1.5317601384439286
18,7.22287313392354
2,1, 1, 1, 0,20,15.00,30.00,Tuesday
7,-1.6500000000000002
8,0.0
9,0.0
10,0.0
11,0.0
12,0.0
13,0.0
14,6.891809859626564
15,-2.597121883421315
16,4.983966110119354
17,-1.314555969643834
18,7.199065310132882
2,1, 1, 1, 0,20,30.00,45.00,Tuesday
7,-1.375
8,0.0
9,0.0
10,0.0
11,0.0
12,0.0
13,0.0
14,6.881702280471906
15,-2.3008219137416296
16,5.023470895121761
17,-1.095023138175236
18,7.1781151688729178
2,1, 1, 1, 0,20,45.00,60.00,Tuesday
7,-1.1
8,0.0
9,0.0
10,0.0
11,0.0
12,0.0
13,0.0
14,6.874164137609612
15,-2.0057580611030416
16,5.065040462289176
17,-0.8732159972605587
18,7.159440113164641
2,1, 1, 1, 0,21, 0.00,15.00,Tuesday
7,-1.25
8,0.0
9,0.0
10,0.0
11,0.0
12,0.0
13,0.0
14,6.824134737911328
15,-2.2840372320087516
16,5.023875689693341
17,-0.954584197086092
18,7.1361756951615249
2,1, 1, 1, 0,21,15.00,30.00,Tuesday
7,-1.4
8,0.0
9,0.0
10,0.0
11,0.0
12,0.0
13,0.0
14,6.7759413049879468
15,-2.4990223554134167
16,4.969008192260276
17,-1.0548737842116225
18,7.103627001070341
2,1, 1, 1, 0,21,30.00,45.00,Tuesday
7,-1.5499999999999999
8,0.0
9,0.0
10,0.0
11,0.0
12,0.0
13,0.0
14,6.714426168529331
15,-2.83951673782261
16,4.919259422657774
17,-1.1299682086699932
18,7.061029642610925
2,1, 1, 1, 0,21,45.00,60.00,Tuesday
7,-1.7
8,0.0
9,0.0
10,0.0
11,0.0
12,0.0
13,0.0
14,6.647629564615987
15,-3.2870188805796114
16,4.870151715226257
17,-1.1778314563557615
18,7.010689288013479
2,1, 1, 1, 0,22, 0.00,15.00,Tuesday
7,-1.5499999999999999
8,0.0
9,0.0
10,0.0
11,0.0
12,0.0
13,0.0
14,6.6483050455298759
15,-2.8046737734504765
16,4.838316053977792
17,-1.1450439466486274
18,6.966065747244397
2,1, 1, 1, 0,22,15.00,30.00,Tuesday
7,-1.4
8,0.0
9,0.0
10,0.0
11,0.0
12,0.0
13,0.0
14,6.638993249241657
15,-2.4780805400590126
16,4.840983369376318
17,-1.0758748371034699
18,6.934372601109901
2,1, 1, 1, 0,22,30.00,45.00,Tuesday
7,-1.25
8,0.0
9,0.0
10,0.0
11,0.0
12,0.0
13,0.0
14,6.628734720963422
15,-2.2595700626491435
16,4.852880648511643
17,-0.9789340200400147
18,6.913293390384009
2,1, 1, 1, 0,22,45.00,60.00,Tuesday
7,-1.1
8,0.0
9,0.0
10,0.0
11,0.0
12,0.0
13,0.0
14,6.622436917782938
15,-1.97988652065996
16,4.863896192570337
17,-0.8883869613260913
18,6.897542471712312
2,1, 1, 1, 0,23, 0.00,15.00,Tuesday
7,-1.25
8,0.0
9,0.0
10,0.0
11,0.0
12,0.0
13,0.0
14,6.571937393958045
15,-2.283217025165624
16,4.77247278617574
17,-1.164260511682869
18,6.8765566985294479
2,1, 1, 1, 0,23,15.00,30.00,Tuesday
7,-1.4
8,0.0
9,0.0
10,0.0
11,0.0
12,0.0
13,0.0
14,6.524543833263784
15,-2.587828781456519
16,4.668978616047411
17,-1.4568019128775518
18,6.845287006021573
2,1, 1, 1, 0,23,30.00,45.00,Tuesday
7,-1.5499999999999999
8,0.0
9,0.0
10,0.0
11,0.0
12,0.0
13,0.0
14,6.4723526896522849
15,-2.893121415908408
16,4.563705685475156
17,-1.7513431392226835
18,6.804995751471086
2,1, 1, 1, 0,23,45.00,60.00,Tuesday
7,-1.7
8,0.0
9,0.0
10,0.0
11,0.0
12,0.0
13,0.0
14,6.41626065945096
15,-3.1987542633099506
16,4.454426435581354
17,-2.0473135913013609
18,6.758724751009301
2,1, 1, 1, 0,24, 0.00,15.00,Tuesday
7,-1.7
8,0.0
9,0.0
10,0.0
11,0.0
12,0.0
13,0.0
14,6.376157128341129
15,-3.2528607982077166
16,4.403456225743298
17,-2.11106095619823
18,6.7120718221155
2,1, 1, 1, 0,24,15.00,30.00,Tuesday
7,-1.7
8,0.0
9,0.0
10,0.0
11,0.0
12,0.0
13,0.0
14,6.333953320568315
15,-3.307566078297018
16,4.35649954448121
17,-2.172913461274561
18,6.6679863157770449
2,1, 1, 1, 0,24,30.00,45.00,Tuesday
7,-1.7
8,0.0
9,0.0
10,0.0
11,0.0
12,0.0
13,0.0
14,6.292841433034924
15,-3.3621635743058517
16,4.309400526992306
17,-2.234732560545922
18,6.6264221694856009
2,1, 1, 1, 0,24,45.00,60.00,Tuesday
7,-1.7
8,0.0
9,0.0
10,0.0
11,0.0
12,0.0
13,0.0
14,6.252546381797877
15,-3.4167639401055549
16,4.263221988509827
17,-2.2962415688565445
18,6.586345929605563
End of Data
 Number of Records Written=        1152
