Program Version,EnergyPlus, Version 9.5.0-de239b2e5f, YMD=2022.11.08 09:47
1,5,Environment Title[],Latitude[deg],Longitude[deg],Time Zone[],Elevation[m]
2,8,Day of Simulation[],Month[],Day of Month[],DST Indicator[1=yes 0=no],Hour[],StartMinute[],EndMinute[],DayType
3,5,Cumulative Day of Simulation[],Month[],Day of Month[],DST Indicator[1=yes 0=no],DayType  ! When Daily Report Variables Requested
4,2,Cumulative Days of Simulation[],Month[]  ! When Monthly Report Variables Requested
5,1,Cumulative Days of Simulation[] ! When Run Period Report Variables Requested
6,1,Calendar Year of Simulation[] ! When Annual Report Variables Requested
7,1,Environment,Site Outdoor Air Drybulb Temperature [C] !TimeStep
8,1,ZONE ONE,Zone Windows Total Transmitted Solar Radiation Rate [W] !TimeStep
9,1,ZN001:WALL001,Surface Outside Face Sunlit Fraction [] !TimeStep
10,1,ZN001:WALL001,Surface Outside Face Incident Solar Radiation Rate per Area [W/m2] !TimeStep
11,1,ZN001:WALL001:WIN001,Surface Outside Face Sunlit Fraction [] !TimeStep
12,1,ZN001:WALL001:WIN001,Surface Outside Face Incident Solar Radiation Rate per Area [W/m2] !TimeStep
13,1,ZN001:WALL001:WIN001,Surface Window Transmitted Solar Radiation Rate [W] !TimeStep
14,1,ZN001:WALL001,Surface Inside Face Temperature [C] !TimeStep
15,1,ZN001:WALL001,Surface Outside Face Temperature [C] !TimeStep
16,1,ZN001:WALL001:WIN001,Surface Inside Face Temperature [C] !TimeStep
17,1,ZN001:WALL001:WIN001,Surface Outside Face Temperature [C] !TimeStep
18,1,ZONE ONE,Zone Mean Air Temperature [C] !TimeStep
End of Data Dictionary
1,RUN PERIOD 1,  41.98, -87.92,  -6.00, 201.00
2,1, 1, 1, 0, 1, 0.00,15.00,Tuesday
7,-4.324999999999999
8,0.0
9,0.0
10,0.0
11,0.0
12,0.0
13,0.0
14,6.441212855638033
15,-5.886636906545961
16,4.026235317550459
17,-4.293223553410314
18,6.914547997506896
2,1, 1, 1, 0, 1,15.00,30.00,Tuesday
7,-6.949999999999999
8,0.0
9,0.0
10,0.0
11,0.0
12,0.0
13,0.0
14,6.258229234799774
15,-8.353973653745186
16,3.42218180704117
17,-6.38079017093429
18,6.8147457935162649
2,1, 1, 1, 0, 1,30.00,45.00,Tuesday
7,-9.575
8,0.0
9,0.0
10,0.0
11,0.0
12,0.0
13,0.0
14,6.05520305639232
15,-10.829271455235574
16,2.8119119041184605
17,-8.474651373645429
18,6.683269474896766
2,1, 1, 1, 0, 1,45.00,60.00,Tuesday
7,-12.2
8,0.0
9,0.0
10,0.0
11,0.0
12,0.0
13,0.0
14,5.836319609750486
15,-13.311193947637199
16,2.186759656281197
17,-10.576143776102299
18,6.52987856005172
2,1, 1, 1, 0, 2, 0.00,15.00,Tuesday
7,-12.075
8,0.0
9,0.0
10,0.0
11,0.0
12,0.0
13,0.0
14,5.7659980961586829
15,-13.112107941293383
16,2.1162629850668965
17,-10.417390768234896
18,6.391615981781697
2,1, 1, 1, 0, 2,15.00,30.00,Tuesday
7,-11.95
8,0.0
9,0.0
10,0.0
11,0.0
12,0.0
13,0.0
14,5.682264445935313
15,-12.935078878424183
16,2.0805505402285009
17,-10.27305906503193
18,6.285331557859983
2,1, 1, 1, 0, 2,30.00,45.00,Tuesday
7,-11.825
8,0.0
9,0.0
10,0.0
11,0.0
12,0.0
13,0.0
14,5.615731223463699
15,-12.75689320746088
16,2.050560163722139
17,-10.128308538669558
18,6.205492205310177
2,1, 1, 1, 0, 2,45.00,60.00,Tuesday
7,-11.7
8,0.0
9,0.0
10,0.0
11,0.0
12,0.0
13,0.0
14,5.560355014401501
15,-12.578789575664104
16,2.0332645990108064
17,-9.980917200579768
18,6.141027689049053
2,1, 1, 1, 0, 3, 0.00,15.00,Tuesday
7,-11.549999999999999
8,0.0
9,0.0
10,0.0
11,0.0
12,0.0
13,0.0
14,5.506691376330856
15,-12.45226561681035
16,2.02703283287633
17,-9.842925573819116
18,6.083091956756527
2,1, 1, 1, 0, 3,15.00,30.00,Tuesday
7,-11.399999999999999
8,0.0
9,0.0
10,0.0
11,0.0
12,0.0
13,0.0
14,5.4560925903286769
15,-12.327089383551848
16,2.0156403042348076
17,-9.685241141981692
18,6.027252238834464
2,1, 1, 1, 0, 3,30.00,45.00,Tuesday
7,-11.25
8,0.0
9,0.0
10,0.0
11,0.0
12,0.0
13,0.0
14,5.406418465472949
15,-12.203416811489765
16,2.012860020490791
17,-9.546161636701186
18,5.972356384457567
2,1, 1, 1, 0, 3,45.00,60.00,Tuesday
7,-11.1
8,0.0
9,0.0
10,0.0
11,0.0
12,0.0
13,0.0
14,5.35714177445887
15,-12.081297591300836
16,2.003774853997072
17,-9.388807485218365
18,5.918210947995122
2,1, 1, 1, 0, 4, 0.00,15.00,Tuesday
7,-11.1
8,0.0
9,0.0
10,0.0
11,0.0
12,0.0
13,0.0
14,5.304164383864767
15,-12.053531131388079
16,1.9486506785958682
17,-9.427445178598135
18,5.863963453004274
2,1, 1, 1, 0, 4,15.00,30.00,Tuesday
7,-11.1
8,0.0
9,0.0
10,0.0
11,0.0
12,0.0
13,0.0
14,5.2515675742081229
15,-12.02683217901294
16,1.8967415525175966
17,-9.465071918557613
18,5.809279197894842
2,1, 1, 1, 0, 4,30.00,45.00,Tuesday
7,-11.1
8,0.0
9,0.0
10,0.0
11,0.0
12,0.0
13,0.0
14,5.198791194705676
15,-12.001635939633854
16,1.845204084624413
17,-9.501720428091119
18,5.754281890869715
2,1, 1, 1, 0, 4,45.00,60.00,Tuesday
7,-11.1
8,0.0
9,0.0
10,0.0
11,0.0
12,0.0
13,0.0
14,5.145944295665561
15,-11.97781265493069
16,1.7938669058021333
17,-9.537311086236742
18,5.699193097711298
2,1, 1, 1, 0, 5, 0.00,15.00,Tuesday
7,-10.975
8,0.0
9,0.0
10,0.0
11,0.0
12,0.0
13,0.0
14,5.0987173671805
15,-11.85590624370165
16,1.7795083573151942
17,-9.451419139952919
18,5.64523399772147
2,1, 1, 1, 0, 5,15.00,30.00,Tuesday
7,-10.85
8,0.0
9,0.0
10,0.0
11,0.0
12,0.0
13,0.0
14,5.051713327019992
15,-11.734066788077167
16,1.7629719729372937
17,-9.357464727822162
18,5.5928909614702209
2,1, 1, 1, 0, 5,30.00,45.00,Tuesday
7,-10.725
8,0.0
9,0.0
10,0.0
11,0.0
12,0.0
13,0.0
14,5.005747822159191
15,-11.612204509220913
16,1.7467257761893507
17,-9.262661149133237
18,5.541930741955234
2,1, 1, 1, 0, 5,45.00,60.00,Tuesday
7,-10.6
8,0.0
9,0.0
10,0.0
11,0.0
12,0.0
13,0.0
14,4.960645342448707
15,-11.490351658106484
16,1.7312902238070365
17,-9.167620116430215
18,5.491971429890858
2,1, 1, 1, 0, 6, 0.00,15.00,Tuesday
7,-10.6
8,0.0
9,0.0
10,0.0
11,0.0
12,0.0
13,0.0
14,4.908611676943653
15,-11.491365004745222
16,1.6870186787115813
17,-9.16921757840504
18,5.441406591511678
2,1, 1, 1, 0, 6,15.00,30.00,Tuesday
7,-10.6
8,0.0
9,0.0
10,0.0
11,0.0
12,0.0
13,0.0
14,4.857214899645035
15,-11.49232785991164
16,1.6438106854751596
17,-9.177422761437356
18,5.3895303840644159
2,1, 1, 1, 0, 6,30.00,45.00,Tuesday
7,-10.6
8,0.0
9,0.0
10,0.0
11,0.0
12,0.0
13,0.0
14,4.805285396153524
15,-11.493332697985422
16,1.600789908954198
17,-9.186206518223458
18,5.336629123001343
2,1, 1, 1, 0, 6,45.00,60.00,Tuesday
7,-10.6
8,0.0
9,0.0
10,0.0
11,0.0
12,0.0
13,0.0
14,4.753051637118463
15,-11.494335292497827
16,1.557412105190508
17,-9.195135641387595
18,5.283220402237876
2,1, 1, 1, 0, 7, 0.00,15.00,Tuesday
7,-10.6
8,0.0
9,0.0
10,0.0
11,0.0
12,0.0
13,0.0
14,4.7027747032186799
15,-11.471375281138999
16,1.5072857818098556
17,-9.225463366695067
18,5.22996484029531
2,1, 1, 1, 0, 7,15.00,30.00,Tuesday
7,-10.6
8,0.0
9,0.0
10,0.0
11,0.0
12,0.0
13,0.0
14,4.652388369473901
15,-11.449605831492099
16,1.4590729403711294
17,-9.256012305013826
18,5.1772044444733968
2,1, 1, 1, 0, 7,30.00,45.00,Tuesday
7,-10.6
8,0.0
9,0.0
10,0.0
11,0.0
12,0.0
13,0.0
14,4.60229913080467
15,-11.428944784319075
16,1.4113153067269196
17,-9.285760996676345
18,5.124922082714719
2,1, 1, 1, 0, 7,45.00,60.00,Tuesday
7,-10.6
8,0.0
9,0.0
10,0.0
11,0.0
12,0.0
13,0.0
14,4.5525132101935859
15,-11.40932633407629
16,1.3640626847493423
17,-9.314567158943817
18,5.073006160185036
2,1, 1, 1, 0, 8, 0.00,15.00,Tuesday
7,-10.45
8,0.0
9,0.0
10,0.0
11,0.0
12,0.0
13,0.0
14,4.5021956906213769
15,-11.359934069374557
16,1.3419638564440675
17,-9.262480373051233
18,5.021146030652999
2,1, 1, 1, 0, 8,15.00,30.00,Tuesday
7,-10.3
8,168.0616243051511
9,1.0
10,22.819555959623899
11,1.0
12,22.819555959623899
13,168.0616243051511
14,4.574131321117829
15,-9.686223027286499
16,1.637147307186524
17,-8.935096478358389
18,4.987971099986494
2,1, 1, 1, 0, 8,30.00,45.00,Tuesday
7,-10.15
8,825.1842598856879
9,1.0
10,109.75755355442667
11,1.0
12,109.75755355442667
13,825.1842598856879
14,4.979745826391288
15,-3.3144626371898755
16,2.8973255333030467
17,-7.825657756269607
18,5.025493329033921
2,1, 1, 1, 0, 8,45.00,60.00,Tuesday
7,-10.0
8,1500.5089904459345
9,1.0
10,195.8764694434918
11,1.0
12,195.8764694434918
13,1500.5089904459345
14,5.494740350454917
15,3.16610948969466
16,4.2930131888009559
17,-6.717687171863531
18,5.141176230089137
2,1, 1, 1, 0, 9, 0.00,15.00,Tuesday
7,-9.725
8,2173.5076427289366
9,1.0
10,278.97248314719988
11,1.0
12,278.97248314719988
13,2173.5076427289366
14,5.929522628424717
15,8.34383974438139
16,5.748316581446375
17,-5.708967790913107
18,5.3113741419839128
2,1, 1, 1, 0, 9,15.00,30.00,Tuesday
7,-9.45
8,2882.9253434710715
9,1.0
10,364.91995730569456
11,1.0
12,364.91995730569456
13,2882.9253434710715
14,6.378416258363152
15,13.420550117471054
16,7.1683370702477309
17,-4.7050974869682709
18,5.527248648930914
2,1, 1, 1, 0, 9,30.00,45.00,Tuesday
7,-9.175
8,3352.273398745572
9,1.0
10,420.35879993239237
11,1.0
12,420.35879993239237
13,3352.273398745572
14,6.69848550088939
15,16.177879860093694
16,8.123211488149537
17,-4.084858804873761
18,5.768568997342385
2,1, 1, 1, 0, 9,45.00,60.00,Tuesday
7,-8.9
8,3839.495031937085
9,1.0
10,478.00138373643099
11,1.0
12,478.00138373643099
13,3839.495031937085
14,7.073188573914611
15,19.17240732164337
16,9.071192003513034
17,-3.4436305960457505
18,6.024662342912964
2,1, 1, 1, 0,10, 0.00,15.00,Tuesday
7,-8.350000000000002
8,4337.010283976317
9,1.0
10,536.9185644770597
11,1.0
12,536.9185644770597
13,4337.010283976317
14,7.3955926703498
15,20.288186021850973
16,10.050137716918698
17,-2.760919972731699
18,6.295520115525688
2,1, 1, 1, 0,10,15.00,30.00,Tuesday
7,-7.800000000000001
8,4851.713193715842
9,1.0
10,598.0969199229219
11,1.0
12,598.0969199229219
13,4851.713193715842
14,7.747556312398005
15,21.539839574965158
16,11.045449032456304
17,-2.079092697385761
18,6.586834557288396
2,1, 1, 1, 0,10,30.00,45.00,Tuesday
7,-7.25
8,5189.364276336167
9,1.0
10,637.6133352894237
11,1.0
12,637.6133352894237
13,5189.364276336167
14,8.022162693524768
15,21.598286883056188
16,11.77050454035583
17,-1.5965378912055713
18,6.709795639647028
2,1, 1, 1, 0,10,45.00,60.00,Tuesday
7,-6.7
8,5522.041937852865
9,1.0
10,676.6412284283772
11,1.0
12,676.6412284283772
13,5522.041937852865
14,8.275867816637606
15,21.756256443966728
16,12.443949162855006
17,-1.120209224144105
18,6.951600753260224
2,1, 1, 1, 0,11, 0.00,15.00,Tuesday
7,-6.275
8,5848.66734450182
9,1.0
10,715.0112779846514
11,1.0
12,715.0112779846514
13,5848.66734450182
14,8.577894845208363
15,23.85311156477275
16,13.128932149748949
17,-0.4259457109271807
18,7.1383899353872739
2,1, 1, 1, 0,11,15.00,30.00,Tuesday
7,-5.85
8,6167.604394427298
9,1.0
10,752.5077794605232
11,1.0
12,752.5077794605232
13,6167.604394427298
14,8.946142958016422
15,25.789901047190314
16,13.840284455282813
17,0.25381287779259767
18,7.5753540851913538
2,1, 1, 1, 0,11,30.00,45.00,Tuesday
7,-5.425
8,6072.816809408413
9,1.0
10,742.5988714321785
11,1.0
12,742.5988714321785
13,6072.816809408413
14,9.229252588011283
15,25.6434911681116
16,14.050972652974395
17,0.5570918475591498
18,7.96185238590522
2,1, 1, 1, 0,11,45.00,60.00,Tuesday
7,-5.0
8,5937.376404960933
9,1.0
10,727.8169025450712
11,1.0
12,727.8169025450712
13,5937.376404960933
14,9.47481549540632
15,25.414483035832185
16,14.176253764106378
17,0.8298579149225702
18,8.290139233832758
2,1, 1, 1, 0,12, 0.00,15.00,Tuesday
7,-4.575
8,5704.4599464372
9,1.0
10,700.3759009170325
11,1.0
12,700.3759009170325
13,5704.4599464372
14,9.648479633378445
15,24.67235924518877
16,14.139297698997098
17,1.0454883165912748
18,8.56698378865616
2,1, 1, 1, 0,12,15.00,30.00,Tuesday
7,-4.15
8,5531.722261273182
9,1.0
10,681.6705029034473
11,1.0
12,681.6705029034473
13,5531.722261273182
14,9.807752956004933
15,24.3415325185952
16,14.155440281452059
17,1.3232324523096964
18,8.806485260738933
2,1, 1, 1, 0,12,30.00,45.00,Tuesday
7,-3.7249999999999998
8,4856.391435465697
9,1.0
10,602.01865277251
11,1.0
12,602.01865277251
13,4856.391435465697
14,9.750676137726498
15,21.314236294845505
16,13.460222368658038
17,1.1380509403272754
18,8.986382784681652
2,1, 1, 1, 0,12,45.00,60.00,Tuesday
7,-3.3
8,3966.2758888265518
9,1.0
10,493.55004396206007
11,1.0
12,493.55004396206007
13,3966.2758888265518
14,9.561372736610194
15,17.136108734966134
16,12.319662382678814
17,0.708494144165968
18,9.080847019027028
2,1, 1, 1, 0,13, 0.00,15.00,Tuesday
7,-3.0249999999999996
8,3274.9389774599069
9,1.0
10,412.335026418112
11,1.0
12,412.335026418112
13,3274.9389774599069
14,9.430797623399628
15,14.29252331102348
16,11.40149241298974
17,0.41987877374822349
18,9.10708276397536
2,1, 1, 1, 0,13,15.00,30.00,Tuesday
7,-2.75
8,2398.5912604167745
9,1.0
10,305.94037763660148
11,1.0
12,305.94037763660148
13,2398.5912604167745
14,9.121211604540454
15,10.119798006525262
16,10.117486000001293
17,-0.08966361834063719
18,9.075530211562266
2,1, 1, 1, 0,13,30.00,45.00,Tuesday
7,-2.475
8,2189.828913837489
9,1.0
10,281.0763483922329
11,1.0
12,281.0763483922329
13,2189.828913837489
14,9.094328478970916
15,9.607829210425319
16,9.805702681890296
17,0.03504802913698768
18,9.026520780760292
2,1, 1, 1, 0,13,45.00,60.00,Tuesday
7,-2.2
8,1985.415375470421
9,1.0
10,256.7721209415886
11,1.0
12,256.7721209415886
13,1985.415375470421
14,9.05962104531729
15,9.001352872370072
16,9.570299882483255
17,0.18439726965306137
18,8.98469048966125
2,1, 1, 1, 0,14, 0.00,15.00,Tuesday
7,-1.9250000000000003
8,1621.8824357798192
9,1.0
10,210.73276284570657
11,1.0
12,210.73276284570657
13,1621.8824357798192
14,8.913665084609807
15,7.454336665294065
16,9.00271130236456
17,0.11761648248591428
18,8.947211725854589
2,1, 1, 1, 0,14,15.00,30.00,Tuesday
7,-1.6500000000000002
8,1440.7551385143125
9,1.0
10,189.38488290342594
11,1.0
12,189.38488290342594
13,1440.7551385143125
14,8.877818363527747
15,7.050341415669613
16,8.733205354085897
17,0.2427761885239761
18,8.913995903786438
2,1, 1, 1, 0,14,30.00,45.00,Tuesday
7,-1.375
8,1374.0726638513466
9,1.0
10,179.3940297802914
11,1.0
12,179.3940297802914
13,1374.0726638513466
14,8.868568465828217
15,7.1740747365802399
16,8.680244229466098
17,0.4799921856667879
18,8.886331415476678
2,1, 1, 1, 0,14,45.00,60.00,Tuesday
7,-1.1
8,1306.6283784814476
9,1.0
10,169.43349014176136
11,1.0
12,169.43349014176136
13,1306.6283784814476
14,8.85564295038654
15,7.2737453629082708
16,8.62031158442727
17,0.715514048687055
18,8.863552291170225
2,1, 1, 1, 0,15, 0.00,15.00,Tuesday
7,-1.1
8,1375.3083417515657
9,1.0
10,178.15692317953907
11,1.0
12,178.15692317953907
13,1375.3083417515657
14,8.920148156344084
15,8.093665345423876
16,8.75713123448412
17,0.850925610721788
18,8.84888324013974
2,1, 1, 1, 0,15,15.00,30.00,Tuesday
7,-1.1
8,1292.064415969111
9,1.0
10,166.40516310952945
11,1.0
12,166.40516310952945
13,1292.064415969111
14,8.867229204124027
15,7.729639173295249
16,8.613502738002638
17,0.7987917918494532
18,8.83728228257578
2,1, 1, 1, 0,15,30.00,45.00,Tuesday
7,-1.1
8,1089.445500137529
9,1.0
10,140.8967369711617
11,1.0
12,140.8967369711617
13,1089.445500137529
14,8.744309145569638
15,6.522411739840306
16,8.226791587255093
17,0.5856018103073666
18,8.818242868008989
2,1, 1, 1, 0,15,45.00,60.00,Tuesday
7,-1.1
8,896.5248587236581
9,1.0
10,116.57355796743004
11,1.0
12,116.57355796743004
13,896.5248587236581
14,8.631763143128755
15,5.317369085728807
16,7.846964423076827
17,0.36357493168861768
18,8.780086000163515
2,1, 1, 1, 0,16, 0.00,15.00,Tuesday
7,-1.1
8,711.5332789277397
9,1.0
10,93.14939272689483
11,1.0
12,93.14939272689483
13,711.5332789277397
14,8.525743117806139
15,4.267609722741794
16,7.50887171093558
17,0.2233312440323516
18,8.721352168178294
2,1, 1, 1, 0,16,15.00,30.00,Tuesday
7,-1.1
8,441.7211488439583
9,1.0
10,57.94047897402063
11,1.0
12,57.94047897402063
13,441.7211488439583
14,8.327888749588928
15,2.145145125171781
16,6.992445388674469
17,-0.0627699132081716
18,8.634164991739889
2,1, 1, 1, 0,16,30.00,45.00,Tuesday
7,-1.1
8,342.47818112717399
9,1.0
10,45.38251793443488
11,1.0
12,45.38251793443488
13,342.47818112717399
14,8.24777467768101
15,1.5364769088126116
16,6.76586041307155
17,-0.10979136039395599
18,8.535457719409083
2,1, 1, 1, 0,16,45.00,60.00,Tuesday
7,-1.1
8,239.0724597140487
9,1.0
10,32.02625108222755
11,1.0
12,32.02625108222755
13,239.0724597140487
14,8.129084618241523
15,0.6755478428396661
16,6.5529738790122569
17,-0.160205688692713
18,8.43890003189146
2,1, 1, 1, 0,17, 0.00,15.00,Tuesday
7,-1.1
8,131.13090930817726
9,1.0
10,17.762198626050539
11,1.0
12,17.762198626050539
13,131.13090930817726
14,7.986258764010419
15,-0.572453364929297
16,6.2856758470289268
17,-0.3216694215577718
18,8.343435402825599
2,1, 1, 1, 0,17,15.00,30.00,Tuesday
7,-1.1
8,0.0
9,0.0
10,0.0
11,0.0
12,0.0
13,0.0
14,7.79404906974082
15,-2.4081793820901815
16,5.946086140875877
17,-0.597528955480584
18,8.236433986652293
2,1, 1, 1, 0,17,30.00,45.00,Tuesday
7,-1.1
8,0.0
9,0.0
10,0.0
11,0.0
12,0.0
13,0.0
14,7.735422860650704
15,-2.5425727058634757
16,5.859011938915501
17,-0.584263424391736
18,8.132262170306826
2,1, 1, 1, 0,17,45.00,60.00,Tuesday
7,-1.1
8,0.0
9,0.0
10,0.0
11,0.0
12,0.0
13,0.0
14,7.661150616222165
15,-2.730883147602228
16,5.813055292504998
17,-0.5549399166920921
18,8.04449982769754
2,1, 1, 1, 0,18, 0.00,15.00,Tuesday
7,-1.25
8,0.0
9,0.0
10,0.0
11,0.0
12,0.0
13,0.0
14,7.598328040624787
15,-2.8790707871605307
16,5.721514758953958
17,-0.6957619953109315
18,7.973770418690598
2,1, 1, 1, 0,18,15.00,30.00,Tuesday
7,-1.4
8,0.0
9,0.0
10,0.0
11,0.0
12,0.0
13,0.0
14,7.540897582166745
15,-3.031510173713135
16,5.644070945483293
17,-0.8274088687653034
18,7.914752983171156
2,1, 1, 1, 0,18,30.00,45.00,Tuesday
7,-1.5499999999999999
8,0.0
9,0.0
10,0.0
11,0.0
12,0.0
13,0.0
14,7.4876833575719419
15,-3.183527027308941
16,5.570985759955079
17,-0.9583011298874453
18,7.862057190575679
2,1, 1, 1, 0,18,45.00,60.00,Tuesday
7,-1.7
8,0.0
9,0.0
10,0.0
11,0.0
12,0.0
13,0.0
14,7.436494453221188
15,-3.3357121553115838
16,5.502991895658283
17,-1.0832691292779373
18,7.812307902672204
2,1, 1, 1, 0,19, 0.00,15.00,Tuesday
7,-1.825
8,0.0
9,0.0
10,0.0
11,0.0
12,0.0
13,0.0
14,7.409642451569637
15,-3.192556373679709
16,5.421123921511139
17,-1.2494938359890285
18,7.7673584539890589
2,1, 1, 1, 0,19,15.00,30.00,Tuesday
7,-1.9500000000000002
8,0.0
9,0.0
10,0.0
11,0.0
12,0.0
13,0.0
14,7.381647060048417
15,-3.130230936843269
16,5.355094874605811
17,-1.4012959692894356
18,7.728992364545782
2,1, 1, 1, 0,19,30.00,45.00,Tuesday
7,-2.075
8,0.0
9,0.0
10,0.0
11,0.0
12,0.0
13,0.0
14,7.349352517152105
15,-3.205245437230862
16,5.303322954661098
17,-1.518884796232669
18,7.695819947604437
2,1, 1, 1, 0,19,45.00,60.00,Tuesday
7,-2.2
8,0.0
9,0.0
10,0.0
11,0.0
12,0.0
13,0.0
14,7.3198719387419139
15,-3.1869350129222608
16,5.241780784967659
17,-1.6643169856876057
18,7.664792968539159
2,1, 1, 1, 0,20, 0.00,15.00,Tuesday
7,-1.9250000000000003
8,0.0
9,0.0
10,0.0
11,0.0
12,0.0
13,0.0
14,7.3061403312496939
15,-2.8867348429773966
16,5.2796283157501879
17,-1.4601109262486035
18,7.636442296755546
2,1, 1, 1, 0,20,15.00,30.00,Tuesday
7,-1.6500000000000002
8,0.0
9,0.0
10,0.0
11,0.0
12,0.0
13,0.0
14,7.292874693242066
15,-2.589430147539343
16,5.315874026965673
17,-1.2443632392084397
18,7.611331282782603
2,1, 1, 1, 0,20,30.00,45.00,Tuesday
7,-1.375
8,0.0
9,0.0
10,0.0
11,0.0
12,0.0
13,0.0
14,7.281403122061166
15,-2.2933664320538158
16,5.353753949236875
17,-1.026271684203266
18,7.589084432673753
2,1, 1, 1, 0,20,45.00,60.00,Tuesday
7,-1.1
8,0.0
9,0.0
10,0.0
11,0.0
12,0.0
13,0.0
14,7.271510915015263
15,-1.9985271094812834
16,5.39368348321625
17,-0.8059889089214494
18,7.568999682246576
2,1, 1, 1, 0,21, 0.00,15.00,Tuesday
7,-1.25
8,0.0
9,0.0
10,0.0
11,0.0
12,0.0
13,0.0
14,7.221459350759491
15,-2.2756317000203816
16,5.353014848187399
17,-0.8816908713345129
18,7.544361184709552
2,1, 1, 1, 0,21,15.00,30.00,Tuesday
7,-1.4
8,0.0
9,0.0
10,0.0
11,0.0
12,0.0
13,0.0
14,7.172128903207003
15,-2.4900659387224737
16,5.298215981886983
17,-0.9788698873912836
18,7.510535080333833
2,1, 1, 1, 0,21,30.00,45.00,Tuesday
7,-1.5499999999999999
8,0.0
9,0.0
10,0.0
11,0.0
12,0.0
13,0.0
14,7.109699400391547
15,-2.829047213362814
16,5.249526089861888
17,-1.0467156797959092
18,7.466748507698859
2,1, 1, 1, 0,21,45.00,60.00,Tuesday
7,-1.7
8,0.0
9,0.0
10,0.0
11,0.0
12,0.0
13,0.0
14,7.041993742767075
15,-3.2748109333309278
16,5.201593401489845
17,-1.0858938515507362
18,7.415298043330172
2,1, 1, 1, 0,22, 0.00,15.00,Tuesday
7,-1.5499999999999999
8,0.0
9,0.0
10,0.0
11,0.0
12,0.0
13,0.0
14,7.041278486354747
15,-2.7945073318949986
16,5.166391819452826
17,-1.0616186198184324
18,7.369586177613524
2,1, 1, 1, 0,22,15.00,30.00,Tuesday
7,-1.4
8,0.0
9,0.0
10,0.0
11,0.0
12,0.0
13,0.0
14,7.030509711401928
15,-2.4692995190438076
16,5.165994897354722
17,-1.0000418800328817
18,7.336771317053685
2,1, 1, 1, 0,22,30.00,45.00,Tuesday
7,-1.25
8,0.0
9,0.0
10,0.0
11,0.0
12,0.0
13,0.0
14,7.018892882170304
15,-2.2514090956954635
16,5.176030498898967
17,-0.9065704275503208
18,7.314512040075189
2,1, 1, 1, 0,22,45.00,60.00,Tuesday
7,-1.1
8,0.0
9,0.0
10,0.0
11,0.0
12,0.0
13,0.0
14,7.011219715955134
15,-1.9728340774233615
16,5.184162071093226
17,-0.8223175061181109
18,7.297508871261316
2,1, 1, 1, 0,23, 0.00,15.00,Tuesday
7,-1.25
8,0.0
9,0.0
10,0.0
11,0.0
12,0.0
13,0.0
14,6.959585860888297
15,-2.276144088610668
16,5.09218420139706
17,-1.0986663448780974
18,7.275191421364246
2,1, 1, 1, 0,23,15.00,30.00,Tuesday
7,-1.4
8,0.0
9,0.0
10,0.0
11,0.0
12,0.0
13,0.0
14,6.911132074186522
15,-2.5807641530496228
16,4.988103999580346
17,-1.3909015857885834
18,7.242564746683972
2,1, 1, 1, 0,23,30.00,45.00,Tuesday
7,-1.5499999999999999
8,0.0
9,0.0
10,0.0
11,0.0
12,0.0
13,0.0
14,6.857828828841227
15,-2.886070207233348
16,4.882278426035214
17,-1.6849359449009285
18,7.200950641131849
2,1, 1, 1, 0,23,45.00,60.00,Tuesday
7,-1.7
8,0.0
9,0.0
10,0.0
11,0.0
12,0.0
13,0.0
14,6.800619152627572
15,-3.1917158603900659
16,4.772096932357613
17,-1.9817214310463669
18,7.153411048154485
2,1, 1, 1, 0,24, 0.00,15.00,Tuesday
7,-1.7
8,0.0
9,0.0
10,0.0
11,0.0
12,0.0
13,0.0
14,6.759316424738353
15,-3.245854136423194
16,4.720020038806183
17,-2.0461603901037508
18,7.105548492032655
2,1, 1, 1, 0,24,15.00,30.00,Tuesday
7,-1.7
8,0.0
9,0.0
10,0.0
11,0.0
12,0.0
13,0.0
14,6.715936894285541
15,-3.300579224330514
16,4.6720682445522929
17,-2.108355914795993
18,7.0602941279024249
2,1, 1, 1, 0,24,30.00,45.00,Tuesday
7,-1.7
8,0.0
9,0.0
10,0.0
11,0.0
12,0.0
13,0.0
14,6.673672954118095
15,-3.3551965662723117
16,4.623987504429465
17,-2.1704827938718838
18,7.017576844011859
2,1, 1, 1, 0,24,45.00,60.00,Tuesday
7,-1.7
8,0.0
9,0.0
10,0.0
11,0.0
12,0.0
13,0.0
14,6.632236877467787
15,-3.4098170539754926
16,4.576842752403934
17,-2.232287462111799
18,6.976347509257848
End of Data
 Number of Records Written=        1152
