Program Version,EnergyPlus, Version 9.5.0-de239b2e5f, YMD=2022.11.08 09:47
1,5,Environment Title[],Latitude[deg],Longitude[deg],Time Zone[],Elevation[m]
2,8,Day of Simulation[],Month[],Day of Month[],DST Indicator[1=yes 0=no],Hour[],StartMinute[],EndMinute[],DayType
3,5,Cumulative Day of Simulation[],Month[],Day of Month[],DST Indicator[1=yes 0=no],DayType  ! When Daily Report Variables Requested
4,2,Cumulative Days of Simulation[],Month[]  ! When Monthly Report Variables Requested
5,1,Cumulative Days of Simulation[] ! When Run Period Report Variables Requested
6,1,Calendar Year of Simulation[] ! When Annual Report Variables Requested
7,1,Environment,Site Outdoor Air Drybulb Temperature [C] !TimeStep
8,1,ZONE ONE,Zone Windows Total Transmitted Solar Radiation Rate [W] !TimeStep
9,1,ZN001:WALL001,Surface Outside Face Sunlit Fraction [] !TimeStep
10,1,ZN001:WALL001,Surface Outside Face Incident Solar Radiation Rate per Area [W/m2] !TimeStep
11,1,ZN001:WALL001:WIN001,Surface Outside Face Sunlit Fraction [] !TimeStep
12,1,ZN001:WALL001:WIN001,Surface Outside Face Incident Solar Radiation Rate per Area [W/m2] !TimeStep
13,1,ZN001:WALL001:WIN001,Surface Window Transmitted Solar Radiation Rate [W] !TimeStep
14,1,ZN001:WALL001,Surface Inside Face Temperature [C] !TimeStep
15,1,ZN001:WALL001,Surface Outside Face Temperature [C] !TimeStep
16,1,ZN001:WALL001:WIN001,Surface Inside Face Temperature [C] !TimeStep
17,1,ZN001:WALL001:WIN001,Surface Outside Face Temperature [C] !TimeStep
18,1,ZONE ONE,Zone Mean Air Temperature [C] !TimeStep
End of Data Dictionary
1,RUN PERIOD 1,  41.98, -87.92,  -6.00, 201.00
2,1, 1, 1, 0, 1, 0.00,15.00,Tuesday
7,-4.324999999999999
8,0.0
9,0.0
10,0.0
11,0.0
12,0.0
13,0.0
14,4.975021601986472
15,-5.9133045839050999
16,2.8127272802883
17,-4.5410071784395999
18,5.4114705724933629
2,1, 1, 1, 0, 1,15.00,30.00,Tuesday
7,-6.949999999999999
8,0.0
9,0.0
10,0.0
11,0.0
12,0.0
13,0.0
14,4.794460773700261
15,-8.380892529726298
16,2.205289917440723
17,-6.628635288101293
18,5.316393650576639
2,1, 1, 1, 0, 1,30.00,45.00,Tuesday
7,-9.575
8,0.0
9,0.0
10,0.0
11,0.0
12,0.0
13,0.0
14,4.594044622225621
15,-10.856490954188235
16,1.5924962887051493
17,-8.72273783739513
18,5.18925428279203
2,1, 1, 1, 0, 1,45.00,60.00,Tuesday
7,-12.2
8,0.0
9,0.0
10,0.0
11,0.0
12,0.0
13,0.0
14,4.377773256750217
15,-13.33869935775813
16,0.9651976511444218
17,-10.824615985617698
18,5.039681973279087
2,1, 1, 1, 0, 2, 0.00,15.00,Tuesday
7,-12.075
8,0.0
9,0.0
10,0.0
11,0.0
12,0.0
13,0.0
14,4.312051671662766
15,-13.139826762610316
16,0.8977539145105311
17,-10.668992332605285
18,4.9047494500596289
2,1, 1, 1, 0, 2,15.00,30.00,Tuesday
7,-11.95
8,0.0
9,0.0
10,0.0
11,0.0
12,0.0
13,0.0
14,4.232524606017148
15,-12.962707932480754
16,0.8663383291109312
17,-10.523554097318027
18,4.801653885805439
2,1, 1, 1, 0, 2,30.00,45.00,Tuesday
7,-11.825
8,0.0
9,0.0
10,0.0
11,0.0
12,0.0
13,0.0
14,4.17013015373456
15,-12.784420199701016
16,0.8404196362702123
17,-10.37772315264823
18,4.725223278736169
2,1, 1, 1, 0, 2,45.00,60.00,Tuesday
7,-11.7
8,0.0
9,0.0
10,0.0
11,0.0
12,0.0
13,0.0
14,4.118971308766642
15,-12.606207671864177
16,0.8271783188087056
17,-10.229242489386195
18,4.664531043234479
2,1, 1, 1, 0, 3, 0.00,15.00,Tuesday
7,-11.549999999999999
8,0.0
9,0.0
10,0.0
11,0.0
12,0.0
13,0.0
14,4.0695281829996159
15,-12.480339635656185
16,0.8239283764906986
17,-10.09392744029168
18,4.610671266151441
2,1, 1, 1, 0, 3,15.00,30.00,Tuesday
7,-11.399999999999999
8,0.0
9,0.0
10,0.0
11,0.0
12,0.0
13,0.0
14,4.023260214723589
15,-12.355847872798746
16,0.8157373882656884
17,-9.939671241479573
18,4.559094573167047
2,1, 1, 1, 0, 3,30.00,45.00,Tuesday
7,-11.25
8,0.0
9,0.0
10,0.0
11,0.0
12,0.0
13,0.0
14,3.9779721197241204
15,-12.232894498989694
16,0.8160918471998571
17,-9.803398471009416
18,4.508548068760147
2,1, 1, 1, 0, 3,45.00,60.00,Tuesday
7,-11.1
8,0.0
9,0.0
10,0.0
11,0.0
12,0.0
13,0.0
14,3.9330991374472656
15,-12.111530929996633
16,0.8102804663046754
17,-9.64961784957444
18,4.458787085445727
2,1, 1, 1, 0, 4, 0.00,15.00,Tuesday
7,-11.1
8,0.0
9,0.0
10,0.0
11,0.0
12,0.0
13,0.0
14,3.884592964217883
15,-12.082812474726654
16,0.7601677047172188
17,-9.683240182126668
18,4.408983923216098
2,1, 1, 1, 0, 4,15.00,30.00,Tuesday
7,-11.1
8,0.0
9,0.0
10,0.0
11,0.0
12,0.0
13,0.0
14,3.836464132822454
15,-12.055200477436144
16,0.7130134072377814
17,-9.716172198874233
18,4.358800466013956
2,1, 1, 1, 0, 4,30.00,45.00,Tuesday
7,-11.1
8,0.0
9,0.0
10,0.0
11,0.0
12,0.0
13,0.0
14,3.7881722343665409
15,-12.029136118943816
16,0.6662235692737113
17,-9.748225960866307
18,4.308334193507603
2,1, 1, 1, 0, 4,45.00,60.00,Tuesday
7,-11.1
8,0.0
9,0.0
10,0.0
11,0.0
12,0.0
13,0.0
14,3.739811583286345
15,-12.004488182038113
16,0.6196222290979563
17,-9.779321494016984
18,4.257782735550813
2,1, 1, 1, 0, 5, 0.00,15.00,Tuesday
7,-10.975
8,0.0
9,0.0
10,0.0
11,0.0
12,0.0
13,0.0
14,3.697090188699808
15,-11.882474653440376
16,0.6092639174879082
17,-9.692547645893569
18,4.208328034147169
2,1, 1, 1, 0, 5,15.00,30.00,Tuesday
7,-10.85
8,0.0
9,0.0
10,0.0
11,0.0
12,0.0
13,0.0
14,3.6545759393848469
15,-11.760536928178772
16,0.5968483805355049
17,-9.597797280476187
18,4.160453204895337
2,1, 1, 1, 0, 5,30.00,45.00,Tuesday
7,-10.725
8,0.0
9,0.0
10,0.0
11,0.0
12,0.0
13,0.0
14,3.613071369050562
15,-11.63857710935923
16,0.584707152218698
17,-9.502203430157352
18,4.113939993808942
2,1, 1, 1, 0, 5,45.00,60.00,Tuesday
7,-10.6
8,0.0
9,0.0
10,0.0
11,0.0
12,0.0
13,0.0
14,3.572411228314479
15,-11.516626873721446
16,0.5733538988035889
17,-9.406376073328943
18,4.068417806230024
2,1, 1, 1, 0, 6, 0.00,15.00,Tuesday
7,-10.6
8,0.0
9,0.0
10,0.0
11,0.0
12,0.0
13,0.0
14,3.5246921307897955
15,-11.51756890329868
16,0.5328748472695679
17,-9.40710534762934
18,4.022292131696695
2,1, 1, 1, 0, 6,15.00,30.00,Tuesday
7,-10.6
8,0.0
9,0.0
10,0.0
11,0.0
12,0.0
13,0.0
14,3.477602558759718
15,-11.5184501218489
16,0.4934053150533373
17,-9.414568144236228
18,3.9748472491145097
2,1, 1, 1, 0, 6,30.00,45.00,Tuesday
7,-10.6
8,0.0
9,0.0
10,0.0
11,0.0
12,0.0
13,0.0
14,3.4299754093697984
15,-11.519373579268758
16,0.4541195903617563
17,-9.422628520316323
18,3.926353908574915
2,1, 1, 1, 0, 6,45.00,60.00,Tuesday
7,-10.6
8,0.0
9,0.0
10,0.0
11,0.0
12,0.0
13,0.0
14,3.382028410037359
15,-11.520295356170948
16,0.4144679201206145
17,-9.430838987269056
18,3.8773226210386819
2,1, 1, 1, 0, 7, 0.00,15.00,Tuesday
7,-10.6
8,0.0
9,0.0
10,0.0
11,0.0
12,0.0
13,0.0
14,3.3361037909551629
15,-11.496573429069008
16,0.36903348558337259
17,-9.457069565538518
18,3.828432495255804
2,1, 1, 1, 0, 7,15.00,30.00,Tuesday
7,-10.6
8,0.0
9,0.0
10,0.0
11,0.0
12,0.0
13,0.0
14,3.2900488507880705
15,-11.474081386636245
16,0.32538286157682708
17,-9.483427193563614
18,3.7800367034051836
2,1, 1, 1, 0, 7,30.00,45.00,Tuesday
7,-10.6
8,0.0
9,0.0
10,0.0
11,0.0
12,0.0
13,0.0
14,3.244280251419242
15,-11.452732576769549
16,0.2821424210568466
17,-9.509074081242375
18,3.7321192483100824
2,1, 1, 1, 0, 7,45.00,60.00,Tuesday
7,-10.6
8,0.0
9,0.0
10,0.0
11,0.0
12,0.0
13,0.0
14,3.19880707645267
15,-11.43245931752147
16,0.2393742964362673
17,-9.533882930118694
18,3.6845653851806849
2,1, 1, 1, 0, 8, 0.00,15.00,Tuesday
7,-10.45
8,0.0
9,0.0
10,0.0
11,0.0
12,0.0
13,0.0
14,3.152684650564692
15,-11.383575344034743
16,0.2199682052299181
17,-9.484350769038315
18,3.6370264872015505
2,1, 1, 1, 0, 8,15.00,30.00,Tuesday
7,-10.3
8,140.4530437625135
9,1.0
10,22.819555959623899
11,1.0
12,22.819555959623899
13,140.4530437625135
14,3.2238809487632866
15,-9.710133718796972
16,0.541212397526067
17,-9.14280054936205
18,3.6069439873577338
2,1, 1, 1, 0, 8,30.00,45.00,Tuesday
7,-10.15
8,689.7471798752524
9,1.0
10,109.75755355442667
11,1.0
12,109.75755355442667
13,689.7471798752524
14,3.614759018961614
15,-3.3420910935252499
16,1.8960546304069795
17,-7.966309042137993
18,3.642776560848537
2,1, 1, 1, 0, 8,45.00,60.00,Tuesday
7,-10.0
8,1254.638834550641
9,1.0
10,195.8764694434918
11,1.0
12,195.8764694434918
13,1254.638834550641
14,4.115689557941529
15,3.1465587280619178
16,3.398098726248577
17,-6.779716651209242
18,3.751160890492982
2,1, 1, 1, 0, 9, 0.00,15.00,Tuesday
7,-9.725
8,1818.0037541412167
9,1.0
10,278.97248314719988
11,1.0
12,278.97248314719988
13,1818.0037541412167
14,4.515909671403706
15,8.31953810254576
16,4.914779600236557
17,-5.72645818378237
18,3.9113710614104817
2,1, 1, 1, 0, 9,15.00,30.00,Tuesday
7,-9.45
8,2412.3111656394678
9,1.0
10,364.91995730569456
11,1.0
12,364.91995730569456
13,2412.3111656394678
14,4.942184614097565
15,13.398631874726379
16,6.3715324833334538
17,-4.668487157527579
18,4.11523511437489
2,1, 1, 1, 0, 9,30.00,45.00,Tuesday
7,-9.175
8,2806.1346414373576
9,1.0
10,420.35879993239237
11,1.0
12,420.35879993239237
13,2806.1346414373576
14,5.241269418808161
15,16.15646704263488
16,7.349283372463901
17,-4.0182821560197798
18,4.343129418082381
2,1, 1, 1, 0, 9,45.00,60.00,Tuesday
7,-8.9
8,3215.191524496191
9,1.0
10,478.00138373643099
11,1.0
12,478.00138373643099
13,3215.191524496191
14,5.592454236047207
15,19.1513430515495
16,8.323188702674429
17,-3.3454747677725438
18,4.584729144617518
2,1, 1, 1, 0,10, 0.00,15.00,Tuesday
7,-8.350000000000002
8,3633.1287848847357
9,1.0
10,536.9185644770597
11,1.0
12,536.9185644770597
13,3633.1287848847357
14,5.889059778320965
15,20.268577727446688
16,9.325192968241538
17,-2.6385087935092885
18,4.840160154169959
2,1, 1, 1, 0,10,15.00,30.00,Tuesday
7,-7.800000000000001
8,4065.6961262580964
9,1.0
10,598.0969199229219
11,1.0
12,598.0969199229219
13,4065.6961262580964
14,6.213485839012662
15,21.521312802001757
16,10.34328273009828
17,-1.9344724708412287
18,5.117439418616344
2,1, 1, 1, 0,10,30.00,45.00,Tuesday
7,-7.25
8,4350.045354607333
9,1.0
10,637.6133352894237
11,1.0
12,637.6133352894237
13,4350.045354607333
14,6.46409982866681
15,21.580819687260069
16,11.07535610728371
17,-1.4430333253508252
18,5.405962460384103
2,1, 1, 1, 0,10,45.00,60.00,Tuesday
7,-6.7
8,4630.293764986058
9,1.0
10,676.6412284283772
11,1.0
12,676.6412284283772
13,4630.293764986058
14,6.738575201735991
15,21.740872478475866
16,11.781488609989424
17,-0.9549629922415761
18,5.693975391577122
2,1, 1, 1, 0,11, 0.00,15.00,Tuesday
7,-6.275
8,4905.49394709454
9,1.0
10,715.0112779846514
11,1.0
12,715.0112779846514
13,4905.49394709454
14,7.089988644872772
15,23.83875912990884
16,12.52908676757471
17,-0.23720650009761358
18,5.982764306750015
2,1, 1, 1, 0,11,15.00,30.00,Tuesday
7,-5.85
8,5174.228331684391
9,1.0
10,752.5077794605232
11,1.0
12,752.5077794605232
13,5174.228331684391
14,7.430794782650281
15,25.774012660238676
16,13.269493605502248
17,0.46046869621159206
18,6.276024225408387
2,1, 1, 1, 0,11,30.00,45.00,Tuesday
7,-5.425
8,5095.298765847239
9,1.0
10,742.5988714321785
11,1.0
12,742.5988714321785
13,5095.298765847239
14,7.634337167909641
15,25.62598614633886
16,13.420627412524084
17,0.7504481780537162
18,6.5557573755447
2,1, 1, 1, 0,11,45.00,60.00,Tuesday
7,-5.0
8,4982.0168749268509
9,1.0
10,727.8169025450712
11,1.0
12,727.8169025450712
13,4982.0168749268509
14,7.833132805500145
15,25.39706654997064
16,13.484062225645005
17,1.0083831437768823
18,6.808643364813783
2,1, 1, 1, 0,12, 0.00,15.00,Tuesday
7,-4.575
8,4786.845238819697
9,1.0
10,700.3759009170325
11,1.0
12,700.3759009170325
13,4786.845238819697
14,7.973760068271887
15,24.654684580369726
16,13.392922130687339
17,1.2058957182061363
18,7.027251468846859
2,1, 1, 1, 0,12,15.00,30.00,Tuesday
7,-4.15
8,4641.759282075953
9,1.0
10,681.6705029034473
11,1.0
12,681.6705029034473
13,4641.759282075953
14,8.135096128879571
15,24.324458276653794
16,13.386280199821954
17,1.4728672695855494
18,7.219243067525011
2,1, 1, 1, 0,12,30.00,45.00,Tuesday
7,-3.7249999999999998
8,4074.594881046348
9,1.0
10,602.01865277251
11,1.0
12,602.01865277251
13,4074.594881046348
14,8.057454694251647
15,21.296234584759838
16,12.617902701453432
17,1.2470179088653595
18,7.362626841179234
2,1, 1, 1, 0,12,45.00,60.00,Tuesday
7,-3.3
8,3327.4639631401234
9,1.0
10,493.55004396206007
11,1.0
12,493.55004396206007
13,3327.4639631401234
14,7.866051962858912
15,17.117978338070487
16,11.387262962677199
17,0.763810763183983
18,7.432529786466279
2,1, 1, 1, 0,13, 0.00,15.00,Tuesday
7,-3.0249999999999996
8,2746.593764974432
9,1.0
10,412.335026418112
11,1.0
12,412.335026418112
13,2746.593764974432
14,7.732583407265189
15,14.273946860191979
16,10.407780759575872
17,0.4345850964357396
18,7.443455079093663
2,1, 1, 1, 0,13,15.00,30.00,Tuesday
7,-2.75
8,2010.8842643830174
9,1.0
10,305.94037763660148
11,1.0
12,305.94037763660148
13,2010.8842643830174
14,7.43372404622957
15,10.100896536384182
16,9.05004065090526
17,-0.12751612811791802
18,7.404350064189536
2,1, 1, 1, 0,13,30.00,45.00,Tuesday
7,-2.475
8,1835.4820591746835
9,1.0
10,281.0763483922329
11,1.0
12,281.0763483922329
13,1835.4820591746835
14,7.406628376207962
15,9.58811440674248
16,8.727084693506925
17,-0.015827601045884877
18,7.351844230195578
2,1, 1, 1, 0,13,45.00,60.00,Tuesday
7,-2.2
8,1663.7353049671045
9,1.0
10,256.7721209415886
11,1.0
12,256.7721209415886
13,1663.7353049671045
14,7.374377416875915
15,8.981737441123445
16,8.474368182989452
17,0.12021932887319054
18,7.306994115259314
2,1, 1, 1, 0,14, 0.00,15.00,Tuesday
7,-1.9250000000000003
8,1358.8592982636938
9,1.0
10,210.73276284570657
11,1.0
12,210.73276284570657
13,1358.8592982636938
14,7.2402744254811639
15,7.434159554128346
16,7.891117342145094
17,0.03085151276536635
18,7.266535728754929
2,1, 1, 1, 0,14,15.00,30.00,Tuesday
7,-1.6500000000000002
8,1206.7111539063067
9,1.0
10,189.38488290342594
11,1.0
12,189.38488290342594
13,1206.7111539063067
14,7.207321147997538
15,7.0293464255678
16,7.620615434642673
17,0.14375529796325282
18,7.230596816072338
2,1, 1, 1, 0,14,30.00,45.00,Tuesday
7,-1.375
8,1150.9256970841889
9,1.0
10,179.3940297802914
11,1.0
12,179.3940297802914
13,1150.9256970841889
14,7.201910605626465
15,7.152283631954977
16,7.559051420326568
17,0.3729898626402246
18,7.201059962281164
2,1, 1, 1, 0,14,45.00,60.00,Tuesday
7,-1.1
8,1094.4471046768156
9,1.0
10,169.43349014176136
11,1.0
12,169.43349014176136
13,1094.4471046768156
14,7.193442360307546
15,7.251016713731644
16,7.491992023466025
17,0.6004646648239032
18,7.1775695357030859
2,1, 1, 1, 0,15, 0.00,15.00,Tuesday
7,-1.1
8,1151.8388760792428
9,1.0
10,178.15692317953907
11,1.0
12,178.15692317953907
13,1151.8388760792428
14,7.253284701307006
15,8.069475346188434
16,7.635054712611463
17,0.7381585904545887
18,7.163076725134236
2,1, 1, 1, 0,15,15.00,30.00,Tuesday
7,-1.1
8,1082.0264420743388
9,1.0
10,166.40516310952945
11,1.0
12,166.40516310952945
13,1082.0264420743388
14,7.204031730402993
15,7.705672965576244
16,7.48090944152699
17,0.6763897500471785
18,7.152227316563763
2,1, 1, 1, 0,15,30.00,45.00,Tuesday
7,-1.1
8,912.1459644481929
9,1.0
10,140.8967369711617
11,1.0
12,140.8967369711617
13,912.1459644481929
14,7.091104323166115
15,6.498753832273397
16,7.049235492212176
17,0.4381847386149502
18,7.134841122646565
2,1, 1, 1, 0,15,45.00,60.00,Tuesday
7,-1.1
8,750.4575669135415
9,1.0
10,116.57355796743004
11,1.0
12,116.57355796743004
13,750.4575669135415
14,6.97922701721624
15,5.290286771845396
16,6.6328305683295529
17,0.18881437645956113
18,7.10110547072015
2,1, 1, 1, 0,16, 0.00,15.00,Tuesday
7,-1.1
8,595.4811691870575
9,1.0
10,93.14939272689483
11,1.0
12,93.14939272689483
13,595.4811691870575
14,6.881243623962908
15,4.239639269385667
16,6.262460521226785
17,0.02730577252873445
18,7.049092755303043
2,1, 1, 1, 0,16,15.00,30.00,Tuesday
7,-1.1
8,369.58982362270117
9,1.0
10,57.94047897402063
11,1.0
12,57.94047897402063
13,369.58982362270117
14,6.69473883456791
15,2.114743737670841
16,5.705613591971087
17,-0.2964644142737143
18,6.972108688802003
2,1, 1, 1, 0,16,30.00,45.00,Tuesday
7,-1.1
8,286.4966636341887
9,1.0
10,45.38251793443488
11,1.0
12,45.38251793443488
13,286.4966636341887
14,6.621882950004347
15,1.5034048558726483
16,5.470123990389425
17,-0.36660249934590186
18,6.879931251895789
2,1, 1, 1, 0,16,45.00,60.00,Tuesday
7,-1.1
8,199.96214020058373
9,1.0
10,32.02625108222755
11,1.0
12,32.02625108222755
13,199.96214020058373
14,6.510483107132647
15,0.639156630216358
16,5.243800104861293
17,-0.4433660132571049
18,6.786874130619453
2,1, 1, 1, 0,17, 0.00,15.00,Tuesday
7,-1.1
8,109.66923701298556
9,1.0
10,17.762198626050539
11,1.0
12,17.762198626050539
13,109.66923701298556
14,6.373562780603573
15,-0.6133193809840898
16,4.960800582313766
17,-0.6361298880632376
18,6.694124657520786
2,1, 1, 1, 0,17,15.00,30.00,Tuesday
7,-1.1
8,0.0
9,0.0
10,0.0
11,0.0
12,0.0
13,0.0
14,6.187621551659598
15,-2.451114463215991
16,4.604857073385801
17,-0.9319858258952536
18,6.590807604310664
2,1, 1, 1, 0,17,30.00,45.00,Tuesday
7,-1.1
8,0.0
9,0.0
10,0.0
11,0.0
12,0.0
13,0.0
14,6.1326353666314949
15,-2.5875116841640968
16,4.516225774021564
17,-0.9434788944633965
18,6.490615914730397
2,1, 1, 1, 0,17,45.00,60.00,Tuesday
7,-1.1
8,0.0
9,0.0
10,0.0
11,0.0
12,0.0
13,0.0
14,6.062690934836714
15,-2.779421631146553
16,4.467933586185723
17,-0.9394076014696111
18,6.406417651468128
2,1, 1, 1, 0,18, 0.00,15.00,Tuesday
7,-1.25
8,0.0
9,0.0
10,0.0
11,0.0
12,0.0
13,0.0
14,6.0042196706516439
15,-2.9271341365315166
16,4.379942500626726
17,-1.077391973517706
18,6.3390358443656089
2,1, 1, 1, 0,18,15.00,30.00,Tuesday
7,-1.4
8,0.0
9,0.0
10,0.0
11,0.0
12,0.0
13,0.0
14,5.950943753252433
15,-3.079541939564975
16,4.306044210425057
17,-1.2073493526178254
18,6.283502318959237
2,1, 1, 1, 0,18,30.00,45.00,Tuesday
7,-1.5499999999999999
8,0.0
9,0.0
10,0.0
11,0.0
12,0.0
13,0.0
14,5.901889980456442
15,-3.2314680069586529
16,4.236453386203095
17,-1.3364046436523723
18,6.234598757465348
2,1, 1, 1, 0,18,45.00,60.00,Tuesday
7,-1.7
8,0.0
9,0.0
10,0.0
11,0.0
12,0.0
13,0.0
14,5.854908320031423
15,-3.383562730534831
16,4.169753944897479
17,-1.4647448386647284
18,6.188960572595487
2,1, 1, 1, 0,19, 0.00,15.00,Tuesday
7,-1.825
8,0.0
9,0.0
10,0.0
11,0.0
12,0.0
13,0.0
14,5.833240007621668
15,-3.2348400250601707
16,4.1034005365232819
17,-1.5920608888310426
18,6.148423356466931
2,1, 1, 1, 0,19,15.00,30.00,Tuesday
7,-1.9500000000000002
8,0.0
9,0.0
10,0.0
11,0.0
12,0.0
13,0.0
14,5.810574101521013
15,-3.167619199130534
16,4.04770289234483
17,-1.7158958948234045
18,6.114740025191614
2,1, 1, 1, 0,19,30.00,45.00,Tuesday
7,-2.075
8,0.0
9,0.0
10,0.0
11,0.0
12,0.0
13,0.0
14,5.783306640655306
15,-3.2412936622287757
16,4.00087234833461
17,-1.8251175155617148
18,6.086430276837713
2,1, 1, 1, 0,19,45.00,60.00,Tuesday
7,-2.2
8,0.0
9,0.0
10,0.0
11,0.0
12,0.0
13,0.0
14,5.759028673692603
15,-3.2186942877092168
16,3.9493261434705575
17,-1.9477938399487016
18,6.060454261665702
2,1, 1, 1, 0,20, 0.00,15.00,Tuesday
7,-1.9250000000000003
8,0.0
9,0.0
10,0.0
11,0.0
12,0.0
13,0.0
14,5.7515386254553
15,-2.917427713720789
16,3.992454951819809
17,-1.738313751926512
18,6.037288571864774
2,1, 1, 1, 0,20,15.00,30.00,Tuesday
7,-1.6500000000000002
8,0.0
9,0.0
10,0.0
11,0.0
12,0.0
13,0.0
14,5.7436154512213239
15,-2.6191975390304
16,4.035092284934024
17,-1.5178583556507875
18,6.017383393865487
2,1, 1, 1, 0,20,30.00,45.00,Tuesday
7,-1.375
8,0.0
9,0.0
10,0.0
11,0.0
12,0.0
13,0.0
14,5.737450996972308
15,-2.3222146102007827
16,4.0793000498135829
17,-1.2945079629682824
18,6.000293361291729
2,1, 1, 1, 0,20,45.00,60.00,Tuesday
7,-1.1
8,0.0
9,0.0
10,0.0
11,0.0
12,0.0
13,0.0
14,5.7328294638345309
15,-2.026502852480632
16,4.125577752946299
17,-1.0687806771674105
18,5.985315376145053
2,1, 1, 1, 0,21, 0.00,15.00,Tuesday
7,-1.25
8,0.0
9,0.0
10,0.0
11,0.0
12,0.0
13,0.0
14,5.685944772714764
15,-2.3079806805306517
16,4.082158292610075
17,-1.1648660441832136
18,5.96568981368726
2,1, 1, 1, 0,21,15.00,30.00,Tuesday
7,-1.4
8,0.0
9,0.0
10,0.0
11,0.0
12,0.0
13,0.0
14,5.640555885621286
15,-2.5247070170370908
16,4.027658288544728
17,-1.2740717413183234
18,5.936769754919987
2,1, 1, 1, 0,21,30.00,45.00,Tuesday
7,-1.5499999999999999
8,0.0
9,0.0
10,0.0
11,0.0
12,0.0
13,0.0
14,5.581625748095581
15,-2.869504292215491
16,3.9743344399685158
17,-1.3712095381505379
18,5.897669402401847
2,1, 1, 1, 0,21,45.00,60.00,Tuesday
7,-1.7
8,0.0
9,0.0
10,0.0
11,0.0
12,0.0
13,0.0
14,5.517424204510969
15,-3.321955177608667
16,3.921272187619593
17,-1.447053536312751
18,5.850591008195765
2,1, 1, 1, 0,22, 0.00,15.00,Tuesday
7,-1.5499999999999999
8,0.0
9,0.0
10,0.0
11,0.0
12,0.0
13,0.0
14,5.522132300842078
15,-2.833784043952915
16,3.899426955315903
17,-1.38760281949817
18,5.809118568789843
2,1, 1, 1, 0,22,15.00,30.00,Tuesday
7,-1.4
8,0.0
9,0.0
10,0.0
11,0.0
12,0.0
13,0.0
14,5.517058471281855
15,-2.503233511892437
16,3.9114423033287268
17,-1.2949748755523843
18,5.780633494922
2,1, 1, 1, 0,22,30.00,45.00,Tuesday
7,-1.25
8,0.0
9,0.0
10,0.0
11,0.0
12,0.0
13,0.0
14,5.510724312084669
15,-2.2829505070094959
16,3.928679130111732
17,-1.188240663606507
18,5.762910640536469
2,1, 1, 1, 0,22,45.00,60.00,Tuesday
7,-1.1
8,0.0
9,0.0
10,0.0
11,0.0
12,0.0
13,0.0
14,5.50838598118665
15,-2.000092826477211
16,3.948245196014227
17,-1.079079924057055
18,5.750723119538602
2,1, 1, 1, 0,23, 0.00,15.00,Tuesday
7,-1.25
8,0.0
9,0.0
10,0.0
11,0.0
12,0.0
13,0.0
14,5.461105045597441
15,-2.3034890227269
16,3.8584852138066596
17,-1.352920426580738
18,5.733552250151584
2,1, 1, 1, 0,23,15.00,30.00,Tuesday
7,-1.4
8,0.0
9,0.0
10,0.0
11,0.0
12,0.0
13,0.0
14,5.416699827925715
15,-2.6080774616062647
16,3.756469073437927
17,-1.6467644022467312
18,5.7061901296989039
2,1, 1, 1, 0,23,30.00,45.00,Tuesday
7,-1.5499999999999999
8,0.0
9,0.0
10,0.0
11,0.0
12,0.0
13,0.0
14,5.367679704431467
15,-2.9133311320003618
16,3.6533194263962516
17,-1.9403364036858193
18,5.6697227658972439
2,1, 1, 1, 0,23,45.00,60.00,Tuesday
7,-1.7
8,0.0
9,0.0
10,0.0
11,0.0
12,0.0
13,0.0
14,5.314780825886651
15,-3.218926772448174
16,3.5467755750639755
17,-2.233283706664565
18,5.627121207506984
2,1, 1, 1, 0,24, 0.00,15.00,Tuesday
7,-1.7
8,0.0
9,0.0
10,0.0
11,0.0
12,0.0
13,0.0
14,5.279095656944482
15,-3.272940500770432
16,3.498711599345029
17,-2.295864837553154
18,5.584065756417341
2,1, 1, 1, 0,24,15.00,30.00,Tuesday
7,-1.7
8,0.0
9,0.0
10,0.0
11,0.0
12,0.0
13,0.0
14,5.239281113626645
15,-3.3276259764522146
16,3.454926427518103
17,-2.3567549389518946
18,5.543403041119069
2,1, 1, 1, 0,24,30.00,45.00,Tuesday
7,-1.7
8,0.0
9,0.0
10,0.0
11,0.0
12,0.0
13,0.0
14,5.2015838294298739
15,-3.3821235328559506
16,3.41036208722835
17,-2.417805465308561
18,5.505125325929607
2,1, 1, 1, 0,24,45.00,60.00,Tuesday
7,-1.7
8,0.0
9,0.0
10,0.0
11,0.0
12,0.0
13,0.0
14,5.164538818186816
15,-3.436671701126159
16,3.366953171628211
17,-2.4784913808388184
18,5.468303529481952
End of Data
 Number of Records Written=        1152
