Program Version,EnergyPlus, Version 9.5.0-de239b2e5f, YMD=2022.11.08 09:46
1,5,Environment Title[],Latitude[deg],Longitude[deg],Time Zone[],Elevation[m]
2,8,Day of Simulation[],Month[],Day of Month[],DST Indicator[1=yes 0=no],Hour[],StartMinute[],EndMinute[],DayType
3,5,Cumulative Day of Simulation[],Month[],Day of Month[],DST Indicator[1=yes 0=no],DayType  ! When Daily Report Variables Requested
4,2,Cumulative Days of Simulation[],Month[]  ! When Monthly Report Variables Requested
5,1,Cumulative Days of Simulation[] ! When Run Period Report Variables Requested
6,1,Calendar Year of Simulation[] ! When Annual Report Variables Requested
7,1,Environment,Site Outdoor Air Drybulb Temperature [C] !TimeStep
8,1,ZONE ONE,Zone Windows Total Transmitted Solar Radiation Rate [W] !TimeStep
9,1,ZN001:WALL001,Surface Outside Face Sunlit Fraction [] !TimeStep
10,1,ZN001:WALL001,Surface Outside Face Incident Solar Radiation Rate per Area [W/m2] !TimeStep
11,1,ZN001:WALL001:WIN001,Surface Outside Face Sunlit Fraction [] !TimeStep
12,1,ZN001:WALL001:WIN001,Surface Outside Face Incident Solar Radiation Rate per Area [W/m2] !TimeStep
13,1,ZN001:WALL001:WIN001,Surface Window Transmitted Solar Radiation Rate [W] !TimeStep
14,1,ZN001:WALL001,Surface Inside Face Temperature [C] !TimeStep
15,1,ZN001:WALL001,Surface Outside Face Temperature [C] !TimeStep
16,1,ZN001:WALL001:WIN001,Surface Inside Face Temperature [C] !TimeStep
17,1,ZN001:WALL001:WIN001,Surface Outside Face Temperature [C] !TimeStep
18,1,ZONE ONE,Zone Mean Air Temperature [C] !TimeStep
End of Data Dictionary
1,RUN PERIOD 1,  41.98, -87.92,  -6.00, 201.00
2,1, 1, 1, 0, 1, 0.00,15.00,Tuesday
7,-4.324999999999999
8,0.0
9,0.0
10,0.0
11,0.0
12,0.0
13,0.0
14,2.2601221967255884
15,-5.962796257434683
16,0.5817469323354203
17,-5.000883770889573
18,2.626818482469374
2,1, 1, 1, 0, 1,15.00,30.00,Tuesday
7,-6.949999999999999
8,0.0
9,0.0
10,0.0
11,0.0
12,0.0
13,0.0
14,2.085014537968128
15,-8.430668926464087
16,-0.034118682657776847
17,-7.088623129242251
18,2.5405184008061334
2,1, 1, 1, 0, 1,30.00,45.00,Tuesday
7,-9.575
8,0.0
9,0.0
10,0.0
11,0.0
12,0.0
13,0.0
14,1.888954496488592
15,-10.906890329457302
16,-0.652281075451981
17,-9.182950440507398
18,2.421399983669407
2,1, 1, 1, 0, 1,45.00,60.00,Tuesday
7,-12.2
8,0.0
9,0.0
10,0.0
11,0.0
12,0.0
13,0.0
14,1.6773225015508369
15,-13.389623158346526
16,-1.2844312171005186
17,-11.28546553214403
18,2.2787874390116946
2,1, 1, 1, 0, 2, 0.00,15.00,Tuesday
7,-12.075
8,0.0
9,0.0
10,0.0
11,0.0
12,0.0
13,0.0
14,1.6201242071351907
15,-13.191156775451294
16,-1.3465834823784917
17,-11.136560579647153
18,2.1497666811988269
2,1, 1, 1, 0, 2,15.00,30.00,Tuesday
7,-11.95
8,0.0
9,0.0
10,0.0
11,0.0
12,0.0
13,0.0
14,1.5483560109468349
15,-13.013876528011624
16,-1.3700364489678805
17,-10.989061141494858
18,2.0522292202781506
2,1, 1, 1, 0, 2,30.00,45.00,Tuesday
7,-11.825
8,0.0
9,0.0
10,0.0
11,0.0
12,0.0
13,0.0
14,1.4935310568494847
15,-12.83540309206258
16,-1.3884706321853174
17,-10.84118405677043
18,1.981758763678434
2,1, 1, 1, 0, 2,45.00,60.00,Tuesday
7,-11.7
8,0.0
9,0.0
10,0.0
11,0.0
12,0.0
13,0.0
14,1.4500713659332616
15,-12.65699136390387
16,-1.3942962991139326
17,-10.69064637202672
18,1.9277537202418727
2,1, 1, 1, 0, 3, 0.00,15.00,Tuesday
7,-11.549999999999999
8,0.0
9,0.0
10,0.0
11,0.0
12,0.0
13,0.0
14,1.4083242325361117
15,-12.53233756435804
16,-1.392275820306395
17,-10.560541444889623
18,1.88121738835294
2,1, 1, 1, 0, 3,15.00,30.00,Tuesday
7,-11.399999999999999
8,0.0
9,0.0
10,0.0
11,0.0
12,0.0
13,0.0
14,1.37002925099525
15,-12.40911088452684
16,-1.391055010095954
17,-10.422185085897354
18,1.83743483521632
2,1, 1, 1, 0, 3,30.00,45.00,Tuesday
7,-11.25
8,0.0
9,0.0
10,0.0
11,0.0
12,0.0
13,0.0
14,1.3327643298811809
15,-12.287483557935524
16,-1.3883522311192565
17,-10.283050541767239
18,1.7948559696587264
2,1, 1, 1, 0, 3,45.00,60.00,Tuesday
7,-11.1
8,0.0
9,0.0
10,0.0
11,0.0
12,0.0
13,0.0
14,1.2960490023212073
15,-12.167516060286062
16,-1.3850051461031968
17,-10.14412397792239
18,1.7531773820186388
2,1, 1, 1, 0, 4, 0.00,15.00,Tuesday
7,-11.1
8,0.0
9,0.0
10,0.0
11,0.0
12,0.0
13,0.0
14,1.2557454138514839
15,-12.137039185011073
16,-1.4290723374068649
17,-10.160264971158199
18,1.7115435939639059
2,1, 1, 1, 0, 4,15.00,30.00,Tuesday
7,-11.1
8,0.0
9,0.0
10,0.0
11,0.0
12,0.0
13,0.0
14,1.2158462005587719
15,-12.10774260694084
16,-1.4678053433245282
17,-10.183471653517984
18,1.669616425164863
2,1, 1, 1, 0, 4,30.00,45.00,Tuesday
7,-11.1
8,0.0
9,0.0
10,0.0
11,0.0
12,0.0
13,0.0
14,1.175806768570426
15,-12.080075271740482
16,-1.505819645225074
17,-10.206638890521277
18,1.6274715337202073
2,1, 1, 1, 0, 4,45.00,60.00,Tuesday
7,-11.1
8,0.0
9,0.0
10,0.0
11,0.0
12,0.0
13,0.0
14,1.1357063522601974
15,-12.05390347213001
16,-1.543642163117795
17,-10.229125470155737
18,1.5852727124040807
2,1, 1, 1, 0, 5, 0.00,15.00,Tuesday
7,-10.975
8,0.0
9,0.0
10,0.0
11,0.0
12,0.0
13,0.0
14,1.1012980522061847
15,-11.931690060642547
16,-1.546678357257747
17,-10.140729844594944
18,1.544122790669886
2,1, 1, 1, 0, 5,15.00,30.00,Tuesday
7,-10.85
8,0.0
9,0.0
10,0.0
11,0.0
12,0.0
13,0.0
14,1.067075974315586
15,-11.809570374280522
16,-1.5515184159410183
17,-10.044523742212732
18,1.5044914266817336
2,1, 1, 1, 0, 5,30.00,45.00,Tuesday
7,-10.725
8,0.0
9,0.0
10,0.0
11,0.0
12,0.0
13,0.0
14,1.0338104078944673
15,-11.687430058220946
16,-1.5561078019829893
17,-9.947484720250714
18,1.4661848275075007
2,1, 1, 1, 0, 5,45.00,60.00,Tuesday
7,-10.6
8,0.0
9,0.0
10,0.0
11,0.0
12,0.0
13,0.0
14,1.001354835721373
15,-11.565299635432663
16,-1.559950200936271
17,-9.850220091383222
18,1.428852772135632
2,1, 1, 1, 0, 6, 0.00,15.00,Tuesday
7,-10.6
8,0.0
9,0.0
10,0.0
11,0.0
12,0.0
13,0.0
14,0.9616222737357776
15,-11.566112856959096
16,-1.5908140958110835
17,-9.852354649085556
18,1.391012877333151
2,1, 1, 1, 0, 6,15.00,30.00,Tuesday
7,-10.6
8,0.0
9,0.0
10,0.0
11,0.0
12,0.0
13,0.0
14,0.9225043399566278
15,-11.566841098287235
16,-1.6233996944902174
17,-9.857996846209517
18,1.351875336981961
2,1, 1, 1, 0, 6,30.00,45.00,Tuesday
7,-10.6
8,0.0
9,0.0
10,0.0
11,0.0
12,0.0
13,0.0
14,0.8828600098106634
15,-11.567613080468515
16,-1.655911200770845
17,-9.864439090479266
18,1.3116255075507446
2,1, 1, 1, 0, 6,45.00,60.00,Tuesday
7,-10.6
8,0.0
9,0.0
10,0.0
11,0.0
12,0.0
13,0.0
14,0.8428604048981877
15,-11.568385314955286
16,-1.6887210012050674
17,-9.871224240068159
18,1.2707471253093948
2,1, 1, 1, 0, 7, 0.00,15.00,Tuesday
7,-10.6
8,0.0
9,0.0
10,0.0
11,0.0
12,0.0
13,0.0
14,0.80496735377811
15,-11.543253719102673
16,-1.7278084948260358
17,-9.887697512375553
18,1.2298748924895063
2,1, 1, 1, 0, 7,15.00,30.00,Tuesday
7,-10.6
8,0.0
9,0.0
10,0.0
11,0.0
12,0.0
13,0.0
14,0.7668901256398714
15,-11.519427505782862
16,-1.7631322340760108
17,-9.905801518981093
18,1.189453161952889
2,1, 1, 1, 0, 7,30.00,45.00,Tuesday
7,-10.6
8,0.0
9,0.0
10,0.0
11,0.0
12,0.0
13,0.0
14,0.7290603766857117
15,-11.496807448511954
16,-1.7980325611137005
17,-9.923621381874
18,1.1495267044381244
2,1, 1, 1, 0, 7,45.00,60.00,Tuesday
7,-10.6
8,0.0
9,0.0
10,0.0
11,0.0
12,0.0
13,0.0
14,0.6915191971506338
15,-11.475322813308697
16,-1.832518577535609
17,-9.940843197598781
18,1.1099896511230095
2,1, 1, 1, 0, 8, 0.00,15.00,Tuesday
7,-10.45
8,0.0
9,0.0
10,0.0
11,0.0
12,0.0
13,0.0
14,0.6531103807513685
15,-11.427377696940799
16,-1.8471704985749967
17,-9.896305299949859
18,1.0704156603846129
2,1, 1, 1, 0, 8,15.00,30.00,Tuesday
7,-10.3
8,88.46537908080674
9,1.0
10,22.819555959623899
11,1.0
12,22.819555959623899
13,88.46537908080674
14,0.722756465344776
15,-9.75445001488845
16,-1.4556893134313783
17,-9.511505001473666
18,1.046248158391234
2,1, 1, 1, 0, 8,30.00,45.00,Tuesday
7,-10.15
8,435.8784170126364
9,1.0
10,109.75755355442667
11,1.0
12,109.75755355442667
13,435.8784170126364
14,1.0862257760891823
15,-3.39368577704391
16,0.15777107285771309
17,-8.151383858112013
18,1.0796791822442793
2,1, 1, 1, 0, 8,45.00,60.00,Tuesday
7,-10.0
8,796.7844770647448
9,1.0
10,195.8764694434918
11,1.0
12,195.8764694434918
13,796.7844770647448
14,1.5650841671071532
15,3.1167783742996799
16,1.9286769084781668
17,-6.797853606699846
18,1.175007233826386
2,1, 1, 1, 0, 9, 0.00,15.00,Tuesday
7,-9.725
8,1160.5108370475155
9,1.0
10,278.97248314719988
11,1.0
12,278.97248314719988
13,1160.5108370475155
14,1.8957195550403896
15,8.273761685469387
16,3.496372389611224
17,-5.632294684968258
18,1.3196922719053222
2,1, 1, 1, 0, 9,15.00,30.00,Tuesday
7,-9.45
8,1547.8580198840537
9,1.0
10,364.91995730569456
11,1.0
12,364.91995730569456
13,1547.8580198840537
14,2.282200322958899
15,13.358192097561512
16,5.041745937053975
17,-4.481488104964342
18,1.5055124289757645
2,1, 1, 1, 0, 9,30.00,45.00,Tuesday
7,-9.175
8,1809.1398315653756
9,1.0
10,420.35879993239237
11,1.0
12,420.35879993239237
13,1809.1398315653756
14,2.544856264193159
15,16.116890200216408
16,6.057808598812926
17,-3.7821539284876737
18,1.7128143791517943
2,1, 1, 1, 0, 9,45.00,60.00,Tuesday
7,-8.9
8,2081.6905740395889
9,1.0
10,478.00138373643099
11,1.0
12,478.00138373643099
13,2081.6905740395889
14,2.8553267214387576
15,19.11246741865914
16,7.077204448006569
17,-3.055622644547725
18,1.9321265944464806
2,1, 1, 1, 0,10, 0.00,15.00,Tuesday
7,-8.350000000000002
8,2361.1567583798885
9,1.0
10,536.9185644770597
11,1.0
12,536.9185644770597
13,2361.1567583798885
14,3.1072319485455188
15,20.232413589314448
16,8.121142787943882
17,-2.3112064805251295
18,2.1668046628330797
2,1, 1, 1, 0,10,15.00,30.00,Tuesday
7,-7.800000000000001
8,2650.938597137918
9,1.0
10,598.0969199229219
11,1.0
12,598.0969199229219
13,2650.938597137918
14,3.3843041118459595
15,21.487236964544569
16,9.18565990716911
17,-1.5698847859706576
18,2.4197331461315576
2,1, 1, 1, 0,10,30.00,45.00,Tuesday
7,-7.25
8,2844.3645952048989
9,1.0
10,637.6133352894237
11,1.0
12,637.6133352894237
13,2844.3645952048989
14,3.593227068804712
15,21.548618562719438
16,9.931588382963469
17,-1.0668431971540713
18,2.6763297285306208
2,1, 1, 1, 0,10,45.00,60.00,Tuesday
7,-6.7
8,3035.0152066278817
9,1.0
10,676.6412284283772
11,1.0
12,676.6412284283772
13,3035.0152066278817
14,3.820201211813847
15,21.71012771937481
16,10.653319768916959
17,-0.5675156518392441
18,2.9264402170878318
2,1, 1, 1, 0,11, 0.00,15.00,Tuesday
7,-6.275
8,3222.160665679646
9,1.0
10,715.0112779846514
11,1.0
12,715.0112779846514
13,3222.160665679646
14,4.123732988196812
15,23.807582275674869
16,11.416150846325309
17,0.18005818919567674
18,3.173232984659156
2,1, 1, 1, 0,11,15.00,30.00,Tuesday
7,-5.85
8,3404.766771167022
9,1.0
10,752.5077794605232
11,1.0
12,752.5077794605232
13,3404.766771167022
14,4.413813432910846
15,25.742516537368883
16,12.166825656456183
17,0.9053340967573149
18,3.421521613073538
2,1, 1, 1, 0,11,30.00,45.00,Tuesday
7,-5.425
8,3354.6017265057528
9,1.0
10,742.5988714321785
11,1.0
12,742.5988714321785
13,3354.6017265057528
14,4.578041442608606
15,25.594331949980636
16,12.269175287715087
17,1.1816644270996904
18,3.655285734727919
2,1, 1, 1, 0,11,45.00,60.00,Tuesday
7,-5.0
8,3280.7009204135358
9,1.0
10,727.8169025450712
11,1.0
12,727.8169025450712
13,3280.7009204135358
14,4.7380200898840949
15,25.36491963736485
16,12.280338223076967
17,1.4219516928006897
18,3.8631903392203785
2,1, 1, 1, 0,12, 0.00,15.00,Tuesday
7,-4.575
8,3152.7908554199286
9,1.0
10,700.3759009170325
11,1.0
12,700.3759009170325
13,3152.7908554199286
14,4.846296950955163
15,24.622140858502126
16,12.117973990834117
17,1.588090487482532
18,4.039635900890068
2,1, 1, 1, 0,12,15.00,30.00,Tuesday
7,-4.15
8,3055.4855757084299
9,1.0
10,681.6705029034473
11,1.0
12,681.6705029034473
13,3055.4855757084299
14,4.973954563112801
15,24.291506381188414
16,12.061193691371273
17,1.835665625734464
18,4.192030729084182
2,1, 1, 1, 0,12,30.00,45.00,Tuesday
7,-3.7249999999999998
8,2678.4134237284245
9,1.0
10,602.01865277251
11,1.0
12,602.01865277251
13,2678.4134237284245
14,4.8871060410900519
15,21.263087304419213
16,11.160134516432379
17,1.5337749682490767
18,4.3014464551348399
2,1, 1, 1, 0,12,45.00,60.00,Tuesday
7,-3.3
8,2185.0952133596808
9,1.0
10,493.55004396206007
11,1.0
12,493.55004396206007
13,2185.0952133596808
14,4.703217651064246
15,17.084394433331615
16,9.762839304920249
17,0.9431725972710297
18,4.3483264745170839
2,1, 1, 1, 0,13, 0.00,15.00,Tuesday
7,-3.0249999999999996
8,1797.6308858687663
9,1.0
10,412.335026418112
11,1.0
12,412.335026418112
13,1797.6308858687663
14,4.571500706957126
15,14.239594247918309
16,8.678283417422904
17,0.540890800935756
18,4.346521533825007
2,1, 1, 1, 0,13,15.00,30.00,Tuesday
7,-2.75
8,1311.0926163736747
9,1.0
10,305.94037763660148
11,1.0
12,305.94037763660148
13,1311.0926163736747
14,4.3017832935188899
15,10.06584084402095
16,7.169859252796186
17,-0.12708630902369578
18,4.302780274679569
2,1, 1, 1, 0,13,30.00,45.00,Tuesday
7,-2.475
8,1194.2641944731743
9,1.0
10,281.0763483922329
11,1.0
12,281.0763483922329
13,1194.2641944731743
14,4.284422126655327
15,9.549019237106654
16,6.827125899517398
17,-0.03923378146691903
18,4.2463496167105749
2,1, 1, 1, 0,13,45.00,60.00,Tuesday
7,-2.2
8,1079.8582631127588
9,1.0
10,256.7721209415886
11,1.0
12,256.7721209415886
13,1079.8582631127588
14,4.25369984024
15,8.945656776050648
16,6.544902801924934
17,0.0726913096801809
18,4.198936570468453
2,1, 1, 1, 0,14, 0.00,15.00,Tuesday
7,-1.9250000000000003
8,880.478041789949
9,1.0
10,210.73276284570657
11,1.0
12,210.73276284570657
13,880.478041789949
14,4.142116142652059
15,7.39684966344981
16,5.891002702155902
17,-0.07145310045791575
18,4.1566985273404379
2,1, 1, 1, 0,14,15.00,30.00,Tuesday
7,-1.6500000000000002
8,779.1741629826219
9,1.0
10,189.38488290342594
11,1.0
12,189.38488290342594
13,779.1741629826219
14,4.115872799016613
15,6.9904033549945849
16,5.6055081899904739
17,0.017977734113117095
18,4.119943804821697
2,1, 1, 1, 0,14,30.00,45.00,Tuesday
7,-1.375
8,743.9788844570335
9,1.0
10,179.3940297802914
11,1.0
12,179.3940297802914
13,743.9788844570335
14,4.116870818038124
15,7.112140335007213
16,5.5214490601435959
17,0.22734357988883859
18,4.090605529194958
2,1, 1, 1, 0,14,45.00,60.00,Tuesday
7,-1.1
8,708.0005797290326
9,1.0
10,169.43349014176136
11,1.0
12,169.43349014176136
13,708.0005797290326
14,4.116051999661132
15,7.209731806331314
16,5.434022354415788
17,0.4347026506654288
18,4.068428864281417
2,1, 1, 1, 0,15, 0.00,15.00,Tuesday
7,-1.1
8,744.5095268430728
9,1.0
10,178.15692317953907
11,1.0
12,178.15692317953907
13,744.5095268430728
14,4.1675361803576529
15,8.024978414635154
16,5.588188242804108
17,0.579403527991758
18,4.056245288963937
2,1, 1, 1, 0,15,15.00,30.00,Tuesday
7,-1.1
8,699.1973500250713
9,1.0
10,166.40516310952945
11,1.0
12,166.40516310952945
13,699.1973500250713
14,4.128618944621585
15,7.661370541259178
16,5.409824371846867
17,0.4956081939458272
18,4.0480017721200849
2,1, 1, 1, 0,15,30.00,45.00,Tuesday
7,-1.1
8,588.0669876036297
9,1.0
10,140.8967369711617
11,1.0
12,140.8967369711617
13,588.0669876036297
14,4.034965296680854
15,6.4536459456562149
16,4.96860193117061
17,0.22451156192448708
18,4.031647624061709
2,1, 1, 1, 0,15,45.00,60.00,Tuesday
7,-1.1
8,482.60445282108756
9,1.0
10,116.57355796743004
11,1.0
12,116.57355796743004
13,482.60445282108756
14,3.9288991493383484
15,5.237448287253303
16,4.520603500476682
17,-0.0604951214085645
18,4.000226124607498
2,1, 1, 1, 0,16, 0.00,15.00,Tuesday
7,-1.1
8,381.9267665214925
9,1.0
10,93.14939272689483
11,1.0
12,93.14939272689483
13,381.9267665214925
14,3.8433816303901664
15,4.187908591113465
16,4.086044568412262
17,-0.28126428922087146
18,3.954469810024987
2,1, 1, 1, 0,16,15.00,30.00,Tuesday
7,-1.1
8,236.41058631101206
9,1.0
10,57.94047897402063
11,1.0
12,57.94047897402063
13,236.41058631101206
14,3.6753198292042859
15,2.058143427737105
16,3.4000075385557695
17,-0.7013529776896803
18,3.8905379958246395
2,1, 1, 1, 0,16,30.00,45.00,Tuesday
7,-1.1
8,182.72767004278894
9,1.0
10,45.38251793443488
11,1.0
12,45.38251793443488
13,182.72767004278894
14,3.6136830604996375
15,1.442088178732513
16,3.1345824246847089
17,-0.8146280872059037
18,3.8164453127665856
2,1, 1, 1, 0,16,45.00,60.00,Tuesday
7,-1.1
8,127.21365373087615
9,1.0
10,32.02625108222755
11,1.0
12,32.02625108222755
13,127.21365373087615
14,3.5187200568020344
15,0.5719045829351616
16,2.869076903272912
17,-0.9483549071363768
18,3.738920780667715
2,1, 1, 1, 0,17, 0.00,15.00,Tuesday
7,-1.1
8,69.64999745873637
9,1.0
10,17.762198626050539
11,1.0
12,17.762198626050539
13,69.64999745873637
14,3.395185524889326
15,-0.6888395831812682
16,2.5461958283574406
17,-1.2164556760900496
18,3.6549496520371518
2,1, 1, 1, 0,17,15.00,30.00,Tuesday
7,-1.1
8,0.0
9,0.0
10,0.0
11,0.0
12,0.0
13,0.0
14,3.2226699810129095
15,-2.530295609607586
16,2.1427007202021288
17,-1.5675009060137768
18,3.557240998516757
2,1, 1, 1, 0,17,30.00,45.00,Tuesday
7,-1.1
8,0.0
9,0.0
10,0.0
11,0.0
12,0.0
13,0.0
14,3.1737440901262716
15,-2.6702885860623595
16,2.052413005559117
17,-1.617840064006316
18,3.4613426241546159
2,1, 1, 1, 0,17,45.00,60.00,Tuesday
7,-1.1
8,0.0
9,0.0
10,0.0
11,0.0
12,0.0
13,0.0
14,3.110576242015939
15,-2.8687830710608845
16,1.9946735042227602
17,-1.6726877842517638
18,3.380723824924988
2,1, 1, 1, 0,18, 0.00,15.00,Tuesday
7,-1.25
8,0.0
9,0.0
10,0.0
11,0.0
12,0.0
13,0.0
14,3.059101265138571
15,-3.0156475271630689
16,1.9117155653010514
17,-1.813845594790564
18,3.3171897377653805
2,1, 1, 1, 0,18,15.00,30.00,Tuesday
7,-1.4
8,0.0
9,0.0
10,0.0
11,0.0
12,0.0
13,0.0
14,3.0127031934156065
15,-3.1680075642352305
16,1.8426180529853583
17,-1.9435630815124228
18,3.26640488178333
2,1, 1, 1, 0,18,30.00,45.00,Tuesday
7,-1.5499999999999999
8,0.0
9,0.0
10,0.0
11,0.0
12,0.0
13,0.0
14,2.97073936201702
15,-3.319771224573985
16,1.7776775478657783
17,-2.0728117234457388
18,3.2232874749201207
2,1, 1, 1, 0,18,45.00,60.00,Tuesday
7,-1.7
8,0.0
9,0.0
10,0.0
11,0.0
12,0.0
13,0.0
14,2.931133444235699
15,-3.4717050109475937
16,1.7159173953366463
17,-2.2011087454362157
18,3.184304436945004
2,1, 1, 1, 0,19, 0.00,15.00,Tuesday
7,-1.825
8,0.0
9,0.0
10,0.0
11,0.0
12,0.0
13,0.0
14,2.9198061095732927
15,-3.312840325209279
16,1.6794818826136862
17,-2.2441114302489497
18,3.1513832238571655
2,1, 1, 1, 0,19,15.00,30.00,Tuesday
7,-1.9500000000000002
8,0.0
9,0.0
10,0.0
11,0.0
12,0.0
13,0.0
14,2.906884478445254
15,-3.2367251869524509
16,1.6461218949747263
17,-2.307678910686036
18,3.1260693407893127
2,1, 1, 1, 0,19,30.00,45.00,Tuesday
7,-2.075
8,0.0
9,0.0
10,0.0
11,0.0
12,0.0
13,0.0
14,2.8890682252314199
15,-3.3079438291166989
16,1.608505769047099
17,-2.400166675200353
18,3.106578922114931
2,1, 1, 1, 0,19,45.00,60.00,Tuesday
7,-2.2
8,0.0
9,0.0
10,0.0
11,0.0
12,0.0
13,0.0
14,2.8734730538911399
15,-3.2774418626601187
16,1.576856918576425
17,-2.477278502978095
18,3.0897416097883307
2,1, 1, 1, 0,20, 0.00,15.00,Tuesday
7,-1.9250000000000003
8,0.0
9,0.0
10,0.0
11,0.0
12,0.0
13,0.0
14,2.8761601835413046
15,-2.974141895586774
16,1.6313018441694567
17,-2.2526093629908248
18,3.0757650206198856
2,1, 1, 1, 0,20,15.00,30.00,Tuesday
7,-1.6500000000000002
8,0.0
9,0.0
10,0.0
11,0.0
12,0.0
13,0.0
14,2.8781895858196928
15,-2.6741458910152549
16,1.6868370130785025
17,-2.0184548221373008
18,3.0650114112341839
2,1, 1, 1, 0,20,30.00,45.00,Tuesday
7,-1.375
8,0.0
9,0.0
10,0.0
11,0.0
12,0.0
13,0.0
14,2.8817330675803047
15,-2.3754717510833647
16,1.7436301250788802
17,-1.78255164057623
18,3.057048375128689
2,1, 1, 1, 0,20,45.00,60.00,Tuesday
7,-1.1
8,0.0
9,0.0
10,0.0
11,0.0
12,0.0
13,0.0
14,2.8867619086439988
15,-2.0781450954088878
16,1.8022565226941652
17,-1.5450288666552297
18,3.051200769274077
2,1, 1, 1, 0,21, 0.00,15.00,Tuesday
7,-1.25
8,0.0
9,0.0
10,0.0
11,0.0
12,0.0
13,0.0
14,2.8467399757062119
15,-2.3677642461792178
16,1.7496134332554903
17,-1.6882630586352435
18,3.040874357603984
2,1, 1, 1, 0,21,15.00,30.00,Tuesday
7,-1.4
8,0.0
9,0.0
10,0.0
11,0.0
12,0.0
13,0.0
14,2.8080538462801329
15,-2.58877154524478
16,1.694641787711248
17,-1.82304103280444
18,3.021323356571439
2,1, 1, 1, 0,21,30.00,45.00,Tuesday
7,-1.5499999999999999
8,0.0
9,0.0
10,0.0
11,0.0
12,0.0
13,0.0
14,2.7552597474716
15,-2.944239072855212
16,1.6293045719019688
17,-1.9825701851875693
18,2.99122478972905
2,1, 1, 1, 0,21,45.00,60.00,Tuesday
7,-1.7
8,0.0
9,0.0
10,0.0
11,0.0
12,0.0
13,0.0
14,2.697108922602448
15,-3.4088339044623017
16,1.5507090108828266
17,-2.1689600465197147
18,2.9523792883785848
2,1, 1, 1, 0,22, 0.00,15.00,Tuesday
7,-1.5499999999999999
8,0.0
9,0.0
10,0.0
11,0.0
12,0.0
13,0.0
14,2.7119382449526485
15,-2.906261262433419
16,1.572537346907211
17,-1.9980486578896262
18,2.918714918086787
2,1, 1, 1, 0,22,15.00,30.00,Tuesday
7,-1.4
8,0.0
9,0.0
10,0.0
11,0.0
12,0.0
13,0.0
14,2.71814952130102
15,-2.5658845722912555
16,1.6095838862624988
17,-1.840294059915209
18,2.8980614561978377
2,1, 1, 1, 0,22,30.00,45.00,Tuesday
7,-1.25
8,0.0
9,0.0
10,0.0
11,0.0
12,0.0
13,0.0
14,2.7220511666076518
15,-2.3412240751868906
16,1.6416596521936527
17,-1.7042339174878408
18,2.8885073324979158
2,1, 1, 1, 0,22,45.00,60.00,Tuesday
7,-1.1
8,0.0
9,0.0
10,0.0
11,0.0
12,0.0
13,0.0
14,2.729819055622895
15,-2.0504636599248795
16,1.6832651119881348
17,-1.5476416983323134
18,2.885020791872927
2,1, 1, 1, 0,23, 0.00,15.00,Tuesday
7,-1.25
8,0.0
9,0.0
10,0.0
11,0.0
12,0.0
13,0.0
14,2.6900982252499054
15,-2.3541012291958469
16,1.5960114974515705
17,-1.8193773907782998
18,2.877332128121938
2,1, 1, 1, 0,23,15.00,30.00,Tuesday
7,-1.4
8,0.0
9,0.0
10,0.0
11,0.0
12,0.0
13,0.0
14,2.6527698967089137
15,-2.658629452088503
16,1.498850578903557
17,-2.1094807142519018
18,2.8598701808994386
2,1, 1, 1, 0,23,30.00,45.00,Tuesday
7,-1.5499999999999999
8,0.0
9,0.0
10,0.0
11,0.0
12,0.0
13,0.0
14,2.6114393459286404
15,-2.96377991693528
16,1.4006961098543798
17,-2.3997392730041158
18,2.8331827647915119
2,1, 1, 1, 0,23,45.00,60.00,Tuesday
7,-1.7
8,0.0
9,0.0
10,0.0
11,0.0
12,0.0
13,0.0
14,2.5663684678544618
15,-3.269279505332955
16,1.299189607178164
17,-2.690513079774007
18,2.7999429180863535
2,1, 1, 1, 0,24, 0.00,15.00,Tuesday
7,-1.7
8,0.0
9,0.0
10,0.0
11,0.0
12,0.0
13,0.0
14,2.5391362326044515
15,-3.323046184798766
16,1.2582884727610236
17,-2.7502238347458389
18,2.7656608951264709
2,1, 1, 1, 0,24,15.00,30.00,Tuesday
7,-1.7
8,0.0
9,0.0
10,0.0
11,0.0
12,0.0
13,0.0
14,2.5088103135020587
15,-3.377587079833186
16,1.2214289131925398
17,-2.8090966488028927
18,2.733449219279532
2,1, 1, 1, 0,24,30.00,45.00,Tuesday
7,-1.7
8,0.0
9,0.0
10,0.0
11,0.0
12,0.0
13,0.0
14,2.4792793899051879
15,-3.4319854079551708
16,1.1840034457873117
17,-2.8681613719724625
18,2.7035087062830547
2,1, 1, 1, 0,24,45.00,60.00,Tuesday
7,-1.7
8,0.0
9,0.0
10,0.0
11,0.0
12,0.0
13,0.0
14,2.450410129846887
15,-3.486384284335815
16,1.1472967001806183
17,-2.9269950363033105
18,2.6749898580913729
End of Data
 Number of Records Written=        1152
