Program Version,EnergyPlus, Version 9.5.0-de239b2e5f, YMD=2022.11.08 09:46
1,5,Environment Title[],Latitude[deg],Longitude[deg],Time Zone[],Elevation[m]
2,8,Day of Simulation[],Month[],Day of Month[],DST Indicator[1=yes 0=no],Hour[],StartMinute[],EndMinute[],DayType
3,5,Cumulative Day of Simulation[],Month[],Day of Month[],DST Indicator[1=yes 0=no],DayType  ! When Daily Report Variables Requested
4,2,Cumulative Days of Simulation[],Month[]  ! When Monthly Report Variables Requested
5,1,Cumulative Days of Simulation[] ! When Run Period Report Variables Requested
6,1,Calendar Year of Simulation[] ! When Annual Report Variables Requested
7,1,Environment,Site Outdoor Air Drybulb Temperature [C] !TimeStep
8,1,ZONE ONE,Zone Windows Total Transmitted Solar Radiation Rate [W] !TimeStep
9,1,ZN001:WALL001,Surface Outside Face Sunlit Fraction [] !TimeStep
10,1,ZN001:WALL001,Surface Outside Face Incident Solar Radiation Rate per Area [W/m2] !TimeStep
11,1,ZN001:WALL001:WIN001,Surface Outside Face Sunlit Fraction [] !TimeStep
12,1,ZN001:WALL001:WIN001,Surface Outside Face Incident Solar Radiation Rate per Area [W/m2] !TimeStep
13,1,ZN001:WALL001:WIN001,Surface Window Transmitted Solar Radiation Rate [W] !TimeStep
14,1,ZN001:WALL001,Surface Inside Face Temperature [C] !TimeStep
15,1,ZN001:WALL001,Surface Outside Face Temperature [C] !TimeStep
16,1,ZN001:WALL001:WIN001,Surface Inside Face Temperature [C] !TimeStep
17,1,ZN001:WALL001:WIN001,Surface Outside Face Temperature [C] !TimeStep
18,1,ZONE ONE,Zone Mean Air Temperature [C] !TimeStep
End of Data Dictionary
1,RUN PERIOD 1,  41.98, -87.92,  -6.00, 201.00
2,1, 1, 1, 0, 1, 0.00,15.00,Tuesday
7,-4.324999999999999
8,0.0
9,0.0
10,0.0
11,0.0
12,0.0
13,0.0
14,0.3654622804469169
15,-5.997491731744519
16,-0.9631028904498749
17,-5.323022029399681
18,0.6808318466898786
2,1, 1, 1, 0, 1,15.00,30.00,Tuesday
7,-6.949999999999999
8,0.0
9,0.0
10,0.0
11,0.0
12,0.0
13,0.0
14,0.19328915552430979
15,-8.465448459570393
16,-1.5862498602616029
17,-7.410714623807735
18,0.6009488565998296
2,1, 1, 1, 0, 1,30.00,45.00,Tuesday
7,-9.575
8,0.0
9,0.0
10,0.0
11,0.0
12,0.0
13,0.0
14,0.00019944546746608068
15,-10.942077746932766
16,-2.209295496256118
17,-9.505069537041607
18,0.4875467033896939
2,1, 1, 1, 0, 1,45.00,60.00,Tuesday
7,-12.2
8,0.0
9,0.0
10,0.0
11,0.0
12,0.0
13,0.0
14,-0.2093692123655725
15,-13.425182383638275
16,-2.8455259249703319
17,-11.607925718502202
18,0.3495654154163792
2,1, 1, 1, 0, 2, 0.00,15.00,Tuesday
7,-12.075
8,0.0
9,0.0
10,0.0
11,0.0
12,0.0
13,0.0
14,-0.2595682455314571
15,-13.22697344502656
16,-2.9046598828368248
17,-11.464762181299193
18,0.22432000686042198
2,1, 1, 1, 0, 2,15.00,30.00,Tuesday
7,-11.95
8,0.0
9,0.0
10,0.0
11,0.0
12,0.0
13,0.0
14,-0.32610309687161578
15,-13.049625386784868
16,-2.9222817697560687
17,-11.315750974004346
18,0.13031228236627766
2,1, 1, 1, 0, 2,30.00,45.00,Tuesday
7,-11.825
8,0.0
9,0.0
10,0.0
11,0.0
12,0.0
13,0.0
14,-0.3757169728833061
15,-12.871019301256144
16,-2.935570651327282
17,-11.16640690405086
18,0.06368532117825286
2,1, 1, 1, 0, 2,45.00,60.00,Tuesday
7,-11.7
8,0.0
9,0.0
10,0.0
11,0.0
12,0.0
13,0.0
14,-0.4138320899618539
15,-12.692470223122648
16,-2.932499635443264
17,-11.024267778886838
18,0.014139566142527854
2,1, 1, 1, 0, 3, 0.00,15.00,Tuesday
7,-11.549999999999999
8,0.0
9,0.0
10,0.0
11,0.0
12,0.0
13,0.0
14,-0.45032336433428968
15,-12.568662011032654
16,-2.9302532148329307
17,-10.889074561153393
18,-0.027464087225903098
2,1, 1, 1, 0, 3,15.00,30.00,Tuesday
7,-11.399999999999999
8,0.0
9,0.0
10,0.0
11,0.0
12,0.0
13,0.0
14,-0.483166939839838
15,-12.446318164007084
16,-2.925831090646227
17,-10.754406270525579
18,-0.06601372686990086
2,1, 1, 1, 0, 3,30.00,45.00,Tuesday
7,-11.25
8,0.0
9,0.0
10,0.0
11,0.0
12,0.0
13,0.0
14,-0.514888660320119
15,-12.325617014148858
16,-2.9194255587391355
17,-10.619882112311757
18,-0.10318460433473849
2,1, 1, 1, 0, 3,45.00,60.00,Tuesday
7,-11.1
8,0.0
9,0.0
10,0.0
11,0.0
12,0.0
13,0.0
14,-0.5460190471206655
15,-12.20662100144512
16,-2.912318015293863
17,-10.48580088405663
18,-0.13935797825703145
2,1, 1, 1, 0, 4, 0.00,15.00,Tuesday
7,-11.1
8,0.0
9,0.0
10,0.0
11,0.0
12,0.0
13,0.0
14,-0.5806247064135056
15,-12.174922117671612
16,-2.9496737477537637
17,-10.495343053909096
18,-0.17536122967402394
2,1, 1, 1, 0, 4,15.00,30.00,Tuesday
7,-11.1
8,0.0
9,0.0
10,0.0
11,0.0
12,0.0
13,0.0
14,-0.6148184618196103
15,-12.144451474665909
16,-2.9821701391909984
17,-10.511935549550345
18,-0.21154824599896619
2,1, 1, 1, 0, 4,30.00,45.00,Tuesday
7,-11.1
8,0.0
9,0.0
10,0.0
11,0.0
12,0.0
13,0.0
14,-0.6491172082638296
15,-12.11566671038882
16,-3.0139872874740378
17,-10.528656332444826
18,-0.24788976909071598
2,1, 1, 1, 0, 4,45.00,60.00,Tuesday
7,-11.1
8,0.0
9,0.0
10,0.0
11,0.0
12,0.0
13,0.0
14,-0.6834660259833518
15,-12.08843259726833
16,-3.0456339804546816
17,-10.544874372798745
18,-0.28426224292081356
2,1, 1, 1, 0, 5, 0.00,15.00,Tuesday
7,-10.975
8,0.0
9,0.0
10,0.0
11,0.0
12,0.0
13,0.0
14,-0.7111016811608446
15,-11.966077979132575
16,-3.0436103862001575
17,-10.45536764866813
18,-0.3195100509973439
2,1, 1, 1, 0, 5,15.00,30.00,Tuesday
7,-10.85
8,0.0
9,0.0
10,0.0
11,0.0
12,0.0
13,0.0
14,-0.739536306216208
15,-11.843864514796025
16,-3.0428849728945694
17,-10.358094776374515
18,-0.3532173086999382
2,1, 1, 1, 0, 5,30.00,45.00,Tuesday
7,-10.725
8,0.0
9,0.0
10,0.0
11,0.0
12,0.0
13,0.0
14,-0.7669670734978942
15,-11.72159260679439
16,-3.0421628702964655
17,-10.260063485065985
18,-0.38564417422959149
2,1, 1, 1, 0, 5,45.00,60.00,Tuesday
7,-10.6
8,0.0
9,0.0
10,0.0
11,0.0
12,0.0
13,0.0
14,-0.7936246910554815
15,-11.599334559927314
16,-3.0407075062283868
17,-10.161803882999778
18,-0.4171536800389421
2,1, 1, 1, 0, 6, 0.00,15.00,Tuesday
7,-10.6
8,0.0
9,0.0
10,0.0
11,0.0
12,0.0
13,0.0
14,-0.8287182493095017
15,-11.60005975399151
16,-3.066986514643986
17,-10.162603806480889
18,-0.44931769889904096
2,1, 1, 1, 0, 6,15.00,30.00,Tuesday
7,-10.6
8,0.0
9,0.0
10,0.0
11,0.0
12,0.0
13,0.0
14,-0.862266446868482
15,-11.600650146095149
16,-3.0951551773462144
17,-10.167256506704348
18,-0.4828684462131828
2,1, 1, 1, 0, 6,30.00,45.00,Tuesday
7,-10.6
8,0.0
9,0.0
10,0.0
11,0.0
12,0.0
13,0.0
14,-0.8964636132295477
15,-11.601322988430998
16,-3.123017302478729
17,-10.17272542284661
18,-0.5175480089683247
2,1, 1, 1, 0, 6,45.00,60.00,Tuesday
7,-10.6
8,0.0
9,0.0
10,0.0
11,0.0
12,0.0
13,0.0
14,-0.9310170468293639
15,-11.601991850564046
16,-3.1511897652723066
17,-10.178581721763067
18,-0.5528544155786014
2,1, 1, 1, 0, 7, 0.00,15.00,Tuesday
7,-10.6
8,0.0
9,0.0
10,0.0
11,0.0
12,0.0
13,0.0
14,-0.9633370601098624
15,-11.575876577960385
16,-3.1838279942357987
17,-10.189658782348943
18,-0.5881264061421403
2,1, 1, 1, 0, 7,15.00,30.00,Tuesday
7,-10.6
8,0.0
9,0.0
10,0.0
11,0.0
12,0.0
13,0.0
14,-0.9958286375735573
15,-11.551117686148345
16,-3.2116235097979599
17,-10.201622251178265
18,-0.6228646768666605
2,1, 1, 1, 0, 7,30.00,45.00,Tuesday
7,-10.6
8,0.0
9,0.0
10,0.0
11,0.0
12,0.0
13,0.0
14,-1.0280984722743536
15,-11.527608119967445
16,-3.2421647575926615
17,-10.214211735853155
18,-0.6571499603860449
2,1, 1, 1, 0, 7,45.00,60.00,Tuesday
7,-10.6
8,0.0
9,0.0
10,0.0
11,0.0
12,0.0
13,0.0
14,-1.0600636126161565
15,-11.505278805851092
16,-3.2691614569605464
17,-10.225422966790405
18,-0.6910223691022966
2,1, 1, 1, 0, 8, 0.00,15.00,Tuesday
7,-10.45
8,0.0
9,0.0
10,0.0
11,0.0
12,0.0
13,0.0
14,-1.0930541750749819
15,-11.457986562741175
16,-3.2786725662235769
17,-10.19526918892086
18,-0.7249809215523566
2,1, 1, 1, 0, 8,15.00,30.00,Tuesday
7,-10.3
8,56.33544650374773
9,1.0
10,22.819555959623899
11,1.0
12,22.819555959623899
13,56.33544650374773
14,-1.0242109774531097
15,-9.785383233982062
16,-2.87741029796274
17,-9.800008166726457
18,-0.7453267933315824
2,1, 1, 1, 0, 8,30.00,45.00,Tuesday
7,-10.15
8,278.1878143908173
9,1.0
10,109.75755355442667
11,1.0
12,109.75755355442667
13,278.1878143908173
14,-0.6789531229452198
15,-3.429903631783191
16,-1.2104780356412448
17,-8.418732247822902
18,-0.7150616909424219
2,1, 1, 1, 0, 8,45.00,60.00,Tuesday
7,-10.0
8,510.16633026542538
9,1.0
10,195.8764694434918
11,1.0
12,195.8764694434918
13,510.16633026542538
14,-0.24871402251416142
15,3.065885467390501
16,0.5690934617715016
17,-7.053398833720564
18,-0.628935954078698
2,1, 1, 1, 0, 9, 0.00,15.00,Tuesday
7,-9.725
8,745.5102693220498
9,1.0
10,278.97248314719988
11,1.0
12,278.97248314719988
13,745.5102693220498
14,0.07005293436302913
15,8.246973582956406
16,2.1291718389547897
17,-5.870037184877333
18,-0.4971229021602364
2,1, 1, 1, 0, 9,15.00,30.00,Tuesday
7,-9.45
8,997.5821561880292
9,1.0
10,364.91995730569456
11,1.0
12,364.91995730569456
13,997.5821561880292
14,0.4225076008033196
15,13.329088578825465
16,3.6772160429932798
17,-4.699525123989815
18,-0.327066044652847
2,1, 1, 1, 0, 9,30.00,45.00,Tuesday
7,-9.175
8,1169.3919902378387
9,1.0
10,420.35879993239237
11,1.0
12,420.35879993239237
13,1169.3919902378387
14,0.6587703448896592
15,16.089271538176534
16,4.692823556550252
17,-3.985565762098986
18,-0.13726677272523644
2,1, 1, 1, 0, 9,45.00,60.00,Tuesday
7,-8.9
8,1349.0103097310737
9,1.0
10,478.00138373643099
11,1.0
12,478.00138373643099
13,1349.0103097310737
14,0.9388579772084383
15,19.08517833731099
16,5.715632951372129
17,-3.2428356805482965
18,0.06430646513323278
2,1, 1, 1, 0,10, 0.00,15.00,Tuesday
7,-8.350000000000002
8,1533.5076978850587
9,1.0
10,536.9185644770597
11,1.0
12,536.9185644770597
13,1533.5076978850587
14,1.1575640118741353
15,20.207047647857
16,6.765435014318427
17,-2.4734555698291844
18,0.2817325546755658
2,1, 1, 1, 0,10,15.00,30.00,Tuesday
7,-7.800000000000001
8,1724.951268997007
9,1.0
10,598.0969199229219
11,1.0
12,598.0969199229219
13,1724.951268997007
14,1.4001207493643322
15,21.463293790876887
16,7.836205150554633
17,-1.7085939090583793
18,0.5122654926229635
2,1, 1, 1, 0,10,30.00,45.00,Tuesday
7,-7.25
8,1853.7472287198562
9,1.0
10,637.6133352894237
11,1.0
12,637.6133352894237
13,1853.7472287198562
14,1.5765494954114064
15,21.5259389440681
16,8.581371946627087
17,-1.187713265391153
18,0.7418739945265295
2,1, 1, 1, 0,10,45.00,60.00,Tuesday
7,-6.7
8,1980.6551757225323
9,1.0
10,676.6412284283772
11,1.0
12,676.6412284283772
13,1980.6551757225323
14,1.7673980560042187
15,21.688458020042643
16,9.30223778539073
17,-0.6720369814123046
18,0.9624067825666102
2,1, 1, 1, 0,11, 0.00,15.00,Tuesday
7,-6.275
8,2105.1728312432258
9,1.0
10,715.0112779846514
11,1.0
12,715.0112779846514
13,2105.1728312432258
14,2.03527570324048
15,23.785598779737645
16,10.060744318537786
17,0.08601452438244906
18,1.1778880069278322
2,1, 1, 1, 0,11,15.00,30.00,Tuesday
7,-5.85
8,2226.6022027676056
9,1.0
10,752.5077794605232
11,1.0
12,752.5077794605232
13,2226.6022027676056
14,2.28819431837752
15,25.720305489411989
16,10.805392224800812
17,0.8207314425679897
18,1.39331653693339
2,1, 1, 1, 0,11,30.00,45.00,Tuesday
7,-5.425
8,2194.2899097807837
9,1.0
10,742.5988714321785
11,1.0
12,742.5988714321785
13,2194.2899097807837
14,2.4243499548708766
15,25.572017803797963
16,10.881032547006953
17,1.0932843114247817
18,1.5941851217408756
2,1, 1, 1, 0,11,45.00,60.00,Tuesday
7,-5.0
8,2146.072136809559
9,1.0
10,727.8169025450712
11,1.0
12,727.8169025450712
13,2146.072136809559
14,2.5569532299981017
15,25.34226137638076
16,10.864993582584475
17,1.328209731959987
18,1.7706047659723632
2,1, 1, 1, 0,12, 0.00,15.00,Tuesday
7,-4.575
8,2062.538643322025
9,1.0
10,700.3759009170325
11,1.0
12,700.3759009170325
13,2062.538643322025
14,2.6435074564517788
15,24.59921468115564
16,10.672429533984485
17,1.486493968554555
18,1.9182508576982849
2,1, 1, 1, 0,12,15.00,30.00,Tuesday
7,-4.15
8,1998.1587463612817
9,1.0
10,681.6705029034473
11,1.0
12,681.6705029034473
13,1998.1587463612817
14,2.7476180445593476
15,24.26829743700913
16,10.587948546848225
17,1.7260380832290139
18,2.0439225885590917
2,1, 1, 1, 0,12,30.00,45.00,Tuesday
7,-3.7249999999999998
8,1750.124751143505
9,1.0
10,602.01865277251
11,1.0
12,602.01865277251
13,1750.124751143505
14,2.657308020295936
15,21.239786967745038
16,9.637803161931629
17,1.4026045367739926
18,2.131377430043982
2,1, 1, 1, 0,12,45.00,60.00,Tuesday
7,-3.3
8,1426.942601532827
9,1.0
10,493.55004396206007
11,1.0
12,493.55004396206007
13,1426.942601532827
14,2.478592985014922
15,17.060805319699499
16,8.196165586558266
17,0.7881363855811401
18,2.166010336542616
2,1, 1, 1, 0,13, 0.00,15.00,Tuesday
7,-3.0249999999999996
8,1171.631875471348
9,1.0
10,412.335026418112
11,1.0
12,412.335026418112
13,1171.631875471348
14,2.3548598657770825
15,14.215530354617889
16,7.0778347731114199
17,0.3627921378947576
18,2.157339112423023
2,1, 1, 1, 0,13,15.00,30.00,Tuesday
7,-2.75
8,852.6159973186883
9,1.0
10,305.94037763660148
11,1.0
12,305.94037763660148
13,852.6159973186883
14,2.1218753600499888
15,10.041466820972037
16,5.535496822619223
17,-0.3309494897272316
18,2.106558364309463
2,1, 1, 1, 0,13,30.00,45.00,Tuesday
7,-2.475
8,775.7107094787166
9,1.0
10,281.0763483922329
11,1.0
12,281.0763483922329
13,775.7107094787166
14,2.1013249389588468
15,9.527288439205517
16,5.1988145557569969
17,-0.25000636327234818
18,2.046002049979659
2,1, 1, 1, 0,13,45.00,60.00,Tuesday
7,-2.2
8,700.3939560884393
9,1.0
10,256.7721209415886
11,1.0
12,256.7721209415886
13,700.3939560884393
14,2.0723064566288915
15,8.920581994669064
16,4.901011590066673
17,-0.14798981835195947
18,1.9969816788363113
2,1, 1, 1, 0,14, 0.00,15.00,Tuesday
7,-1.9250000000000003
8,570.5139869313712
9,1.0
10,210.73276284570657
11,1.0
12,210.73276284570657
13,570.5139869313712
14,1.9768359328875549
15,7.371441454668409
16,4.235682254979565
17,-0.3061824068431065
18,1.9551772796916654
2,1, 1, 1, 0,14,15.00,30.00,Tuesday
7,-1.6500000000000002
8,503.82639216139287
9,1.0
10,189.38488290342594
11,1.0
12,189.38488290342594
13,503.82639216139287
14,1.9556978167753488
15,6.963991941570524
16,3.9484425593936978
17,-0.22806896295026037
18,1.9202735333026262
2,1, 1, 1, 0,14,30.00,45.00,Tuesday
7,-1.375
8,481.41722528207426
9,1.0
10,179.3940297802914
11,1.0
12,179.3940297802914
13,481.41722528207426
14,1.961246009563223
15,7.083908415780696
16,3.862741032257418
17,-0.026143709484927059
18,1.8936781695915924
2,1, 1, 1, 0,14,45.00,60.00,Tuesday
7,-1.1
8,458.3758550788425
9,1.0
10,169.43349014176136
11,1.0
12,169.43349014176136
13,458.3758550788425
14,1.9631346019110466
15,7.180462807422141
16,3.775781231029498
17,0.17366784303749228
18,1.8748927384014674
2,1, 1, 1, 0,15, 0.00,15.00,Tuesday
7,-1.1
8,481.7996453369989
9,1.0
10,178.15692317953907
11,1.0
12,178.15692317953907
13,481.7996453369989
14,2.0089365001942145
15,7.994198882951547
16,3.930055236039152
17,0.3132697523705019
18,1.8658613468465622
2,1, 1, 1, 0,15,15.00,30.00,Tuesday
7,-1.1
8,452.44124829070446
9,1.0
10,166.40516310952945
11,1.0
12,166.40516310952945
13,452.44124829070446
14,1.977264822778529
15,7.630421756867344
16,3.74732017720288
17,0.2202417234332188
18,1.86062103728473
2,1, 1, 1, 0,15,30.00,45.00,Tuesday
7,-1.1
8,380.00956627527298
9,1.0
10,140.8967369711617
11,1.0
12,140.8967369711617
13,380.00956627527298
14,1.8952521339406372
15,6.422094859623073
16,3.308363419445982
17,-0.07067493050283247
18,1.8476472664896456
2,1, 1, 1, 0,15,45.00,60.00,Tuesday
7,-1.1
8,311.3807999352738
9,1.0
10,116.57355796743004
11,1.0
12,116.57355796743004
13,311.3807999352738
14,1.8077256284647037
15,5.20952511351588
16,2.863794403250381
17,-0.3609933304619517
18,1.8205954831215104
2,1, 1, 1, 0,16, 0.00,15.00,Tuesday
7,-1.1
8,246.01688048262708
9,1.0
10,93.14939272689483
11,1.0
12,93.14939272689483
13,246.01688048262708
14,1.7195813311160393
15,4.148223678367378
16,2.440529611231682
17,-0.5978033392805173
18,1.7806833687331188
2,1, 1, 1, 0,16,15.00,30.00,Tuesday
7,-1.1
8,152.0330004930288
9,1.0
10,57.94047897402063
11,1.0
12,57.94047897402063
13,152.0330004930288
14,1.5657359909336255
15,2.0180638413083775
16,1.7439070556668526
17,-1.0431951841663363
18,1.7254663939695865
2,1, 1, 1, 0,16,30.00,45.00,Tuesday
7,-1.1
8,117.29132710674188
9,1.0
10,45.38251793443488
11,1.0
12,45.38251793443488
13,117.29132710674188
14,1.5119441801815848
15,1.399172628019317
16,1.4605649041805578
17,-1.1875274379043504
18,1.6624512190421799
2,1, 1, 1, 0,16,45.00,60.00,Tuesday
7,-1.1
8,81.52295525882068
9,1.0
10,32.02625108222755
11,1.0
12,32.02625108222755
13,81.52295525882068
14,1.426730249191377
15,0.5246554875578214
16,1.1822369085977016
17,-1.354984705294214
18,1.5973459102487738
2,1, 1, 1, 0,17, 0.00,15.00,Tuesday
7,-1.1
8,44.58268778520141
9,1.0
10,17.762198626050539
11,1.0
12,17.762198626050539
13,44.58268778520141
14,1.3131589891966685
15,-0.7418341438678848
16,0.8475985891617484
17,-1.651619471462027
18,1.5274414440707299
2,1, 1, 1, 0,17,15.00,30.00,Tuesday
7,-1.1
8,0.0
9,0.0
10,0.0
11,0.0
12,0.0
13,0.0
14,1.1524468390255454
15,-2.585461970372134
16,0.4451280329240035
17,-1.988487827632639
18,1.442363258964326
2,1, 1, 1, 0,17,30.00,45.00,Tuesday
7,-1.1
8,0.0
9,0.0
10,0.0
11,0.0
12,0.0
13,0.0
14,1.1112409630182956
15,-2.727646300185016
16,0.35718949256641965
17,-2.0594681112344235
18,1.3528567455039327
2,1, 1, 1, 0,17,45.00,60.00,Tuesday
7,-1.1
8,0.0
9,0.0
10,0.0
11,0.0
12,0.0
13,0.0
14,1.0541726220946826
15,-2.930729393317371
16,0.29911436161449958
17,-2.136308806215311
18,1.2746607400340176
2,1, 1, 1, 0,18, 0.00,15.00,Tuesday
7,-1.25
8,0.0
9,0.0
10,0.0
11,0.0
12,0.0
13,0.0
14,1.0076213506009376
15,-3.077068218978312
16,0.22152173803675624
17,-2.2764887515218108
18,1.2124484082305285
2,1, 1, 1, 0,18,15.00,30.00,Tuesday
7,-1.4
8,0.0
9,0.0
10,0.0
11,0.0
12,0.0
13,0.0
14,0.96562450221741
15,-3.229428341311951
16,0.1552303020234831
17,-2.406740198856369
18,1.1635087370046542
2,1, 1, 1, 0,18,30.00,45.00,Tuesday
7,-1.5499999999999999
8,0.0
9,0.0
10,0.0
11,0.0
12,0.0
13,0.0
14,0.9291514936336732
15,-3.381091230685944
16,0.09290669242921013
17,-2.5365180162119147
18,1.1233415796203797
2,1, 1, 1, 0,18,45.00,60.00,Tuesday
7,-1.7
8,0.0
9,0.0
10,0.0
11,0.0
12,0.0
13,0.0
14,0.8943278028516948
15,-3.532991720593746
16,0.03639635813306086
17,-2.6594409277408319
18,1.0882598366617307
2,1, 1, 1, 0,19, 0.00,15.00,Tuesday
7,-1.825
8,0.0
9,0.0
10,0.0
11,0.0
12,0.0
13,0.0
14,0.8880890424810514
15,-3.367119932666434
16,0.011508047781717324
17,-2.673809507189162
18,1.0597996940699559
2,1, 1, 1, 0,19,15.00,30.00,Tuesday
7,-1.9500000000000002
8,0.0
9,0.0
10,0.0
11,0.0
12,0.0
13,0.0
14,0.882786157070722
15,-3.2847842120455987
16,-0.00867526992681178
17,-2.7049739009539168
18,1.0394498961075445
2,1, 1, 1, 0,19,30.00,45.00,Tuesday
7,-2.075
8,0.0
9,0.0
10,0.0
11,0.0
12,0.0
13,0.0
14,0.8705217624521319
15,-3.354388499776536
16,-0.040304118491746979
17,-2.7881964579408988
18,1.0253091702497042
2,1, 1, 1, 0,19,45.00,60.00,Tuesday
7,-2.2
8,0.0
9,0.0
10,0.0
11,0.0
12,0.0
13,0.0
14,0.8625324320351694
15,-3.3183482995331818
16,-0.05916947538639761
17,-2.8371890943532209
18,1.0143548840179014
2,1, 1, 1, 0,20, 0.00,15.00,Tuesday
7,-1.9250000000000003
8,0.0
9,0.0
10,0.0
11,0.0
12,0.0
13,0.0
14,0.870444933295232
15,-3.013679958871185
16,0.004367035977566047
17,-2.6010553872481525
18,1.0063698569652966
2,1, 1, 1, 0,20,15.00,30.00,Tuesday
7,-1.6500000000000002
8,0.0
9,0.0
10,0.0
11,0.0
12,0.0
13,0.0
14,0.8790611528863842
15,-2.7123666073932894
16,0.06835795001882161
17,-2.3586484343836675
18,1.001502208399956
2,1, 1, 1, 0,20,30.00,45.00,Tuesday
7,-1.375
8,0.0
9,0.0
10,0.0
11,0.0
12,0.0
13,0.0
14,0.8890905180484109
15,-2.4124895380491524
16,0.13400952591973692
17,-2.114814153915347
18,0.9993636634349618
2,1, 1, 1, 0,20,45.00,60.00,Tuesday
7,-1.1
8,0.0
9,0.0
10,0.0
11,0.0
12,0.0
13,0.0
14,0.9013262443465652
15,-2.1140146206427188
16,0.20142433252522097
17,-1.8696984705417208
18,0.999428545382235
2,1, 1, 1, 0,21, 0.00,15.00,Tuesday
7,-1.25
8,0.0
9,0.0
10,0.0
11,0.0
12,0.0
13,0.0
14,0.8679860310322877
15,-2.409448282863424
16,0.14227418940276949
17,-2.0425945901718025
18,0.9956717812824797
2,1, 1, 1, 0,21,15.00,30.00,Tuesday
7,-1.4
8,0.0
9,0.0
10,0.0
11,0.0
12,0.0
13,0.0
14,0.8322248523840259
15,-2.6335442384793055
16,0.08725796293498434
17,-2.19302006813831
18,0.9831147517503881
2,1, 1, 1, 0,21,30.00,45.00,Tuesday
7,-1.5499999999999999
8,0.0
9,0.0
10,0.0
11,0.0
12,0.0
13,0.0
14,0.7834641225961994
15,-2.9963268916290639
16,0.013586751946945697
17,-2.38950945630404
18,0.9598451160095343
2,1, 1, 1, 0,21,45.00,60.00,Tuesday
7,-1.7
8,0.0
9,0.0
10,0.0
11,0.0
12,0.0
13,0.0
14,0.7295396042834319
15,-3.4692364852717247
16,-0.07309547227987423
17,-2.6215444296166199
18,0.9272850214849266
2,1, 1, 1, 0,22, 0.00,15.00,Tuesday
7,-1.5499999999999999
8,0.0
9,0.0
10,0.0
11,0.0
12,0.0
13,0.0
14,0.7521998743105979
15,-2.956649430975582
16,-0.03398940689152141
17,-2.392748193719058
18,0.8992357449693335
2,1, 1, 1, 0,22,15.00,30.00,Tuesday
7,-1.4
8,0.0
9,0.0
10,0.0
11,0.0
12,0.0
13,0.0
14,0.7652796086259995
15,-2.6095117192321708
16,0.019238392138220207
17,-2.1982240903275285
18,0.8836826257198214
2,1, 1, 1, 0,22,30.00,45.00,Tuesday
7,-1.25
8,0.0
9,0.0
10,0.0
11,0.0
12,0.0
13,0.0
14,0.7765670202331987
15,-2.3817355355158145
16,0.06524025047741589
17,-2.0526663343545126
18,0.8791998800348179
2,1, 1, 1, 0,22,45.00,60.00,Tuesday
7,-1.1
8,0.0
9,0.0
10,0.0
11,0.0
12,0.0
13,0.0
14,0.7915524051350618
15,-2.0854574546032396
16,0.11838483643191467
17,-1.8562018708815913
18,0.8810787580961699
2,1, 1, 1, 0,23, 0.00,15.00,Tuesday
7,-1.25
8,0.0
9,0.0
10,0.0
11,0.0
12,0.0
13,0.0
14,0.7587959522441938
15,-2.3894174547205617
16,0.036437436984613217
17,-2.136041424304608
18,0.8798490630899205
2,1, 1, 1, 0,23,15.00,30.00,Tuesday
7,-1.4
8,0.0
9,0.0
10,0.0
11,0.0
12,0.0
13,0.0
14,0.7255912515640897
15,-2.694008784655261
16,-0.057810690478390828
17,-2.4250308761911016
18,0.8696769265958438
2,1, 1, 1, 0,23,30.00,45.00,Tuesday
7,-1.5499999999999999
8,0.0
9,0.0
10,0.0
11,0.0
12,0.0
13,0.0
14,0.6883830386314526
15,-2.9990566060851875
16,-0.15357405728030927
17,-2.714151598350668
18,0.8502937415818396
2,1, 1, 1, 0,23,45.00,60.00,Tuesday
7,-1.7
8,0.0
9,0.0
10,0.0
11,0.0
12,0.0
13,0.0
14,0.6487393246512375
15,-3.3044339218668989
16,-0.25247001199545596
17,-3.0037865177507685
18,0.8239437701609005
2,1, 1, 1, 0,24, 0.00,15.00,Tuesday
7,-1.7
8,0.0
9,0.0
10,0.0
11,0.0
12,0.0
13,0.0
14,0.6274453226363995
15,-3.358007377304315
16,-0.28852112874329807
17,-3.061670323554722
18,0.7959620673365199
2,1, 1, 1, 0,24,15.00,30.00,Tuesday
7,-1.7
8,0.0
9,0.0
10,0.0
11,0.0
12,0.0
13,0.0
14,0.6030707311859249
15,-3.412447851148097
16,-0.32064377175390748
17,-3.1192468055794508
18,0.7695983848053788
2,1, 1, 1, 0,24,30.00,45.00,Tuesday
7,-1.7
8,0.0
9,0.0
10,0.0
11,0.0
12,0.0
13,0.0
14,0.5792433613315269
15,-3.4667518841573559
16,-0.3534532846453544
17,-3.1770884075414189
18,0.7452933595591459
2,1, 1, 1, 0,24,45.00,60.00,Tuesday
7,-1.7
8,0.0
9,0.0
10,0.0
11,0.0
12,0.0
13,0.0
14,0.5559595120610257
15,-3.521053230628395
16,-0.3856964852576539
17,-3.234743074565813
18,0.7223632890738981
End of Data
 Number of Records Written=        1152
