Program Version,EnergyPlus, Version 9.5.0-de239b2e5f, YMD=2022.11.08 09:47
1,5,Environment Title[],Latitude[deg],Longitude[deg],Time Zone[],Elevation[m]
2,8,Day of Simulation[],Month[],Day of Month[],DST Indicator[1=yes 0=no],Hour[],StartMinute[],EndMinute[],DayType
3,5,Cumulative Day of Simulation[],Month[],Day of Month[],DST Indicator[1=yes 0=no],DayType  ! When Daily Report Variables Requested
4,2,Cumulative Days of Simulation[],Month[]  ! When Monthly Report Variables Requested
5,1,Cumulative Days of Simulation[] ! When Run Period Report Variables Requested
6,1,Calendar Year of Simulation[] ! When Annual Report Variables Requested
7,1,Environment,Site Outdoor Air Drybulb Temperature [C] !TimeStep
8,1,ZONE ONE,Zone Windows Total Transmitted Solar Radiation Rate [W] !TimeStep
9,1,ZN001:WALL001,Surface Outside Face Sunlit Fraction [] !TimeStep
10,1,ZN001:WALL001,Surface Outside Face Incident Solar Radiation Rate per Area [W/m2] !TimeStep
11,1,ZN001:WALL001:WIN001,Surface Outside Face Sunlit Fraction [] !TimeStep
12,1,ZN001:WALL001:WIN001,Surface Outside Face Incident Solar Radiation Rate per Area [W/m2] !TimeStep
13,1,ZN001:WALL001:WIN001,Surface Window Transmitted Solar Radiation Rate [W] !TimeStep
14,1,ZN001:WALL001,Surface Inside Face Temperature [C] !TimeStep
15,1,ZN001:WALL001,Surface Outside Face Temperature [C] !TimeStep
16,1,ZN001:WALL001:WIN001,Surface Inside Face Temperature [C] !TimeStep
17,1,ZN001:WALL001:WIN001,Surface Outside Face Temperature [C] !TimeStep
18,1,ZONE ONE,Zone Mean Air Temperature [C] !TimeStep
End of Data Dictionary
1,RUN PERIOD 1,  41.98, -87.92,  -6.00, 201.00
2,1, 1, 1, 0, 1, 0.00,15.00,Tuesday
7,-4.324999999999999
8,0.0
9,0.0
10,0.0
11,0.0
12,0.0
13,0.0
14,7.20013694866257
15,-5.872840346724307
16,4.656432984250955
17,-4.165152146018386
18,7.692166150997443
2,1, 1, 1, 0, 1,15.00,30.00,Tuesday
7,-6.949999999999999
8,0.0
9,0.0
10,0.0
11,0.0
12,0.0
13,0.0
14,7.0158486198335219
15,-8.340040168295783
16,4.053933125872959
17,-6.25266598859821
18,7.58992349945178
2,1, 1, 1, 0, 1,30.00,45.00,Tuesday
7,-9.575
8,0.0
9,0.0
10,0.0
11,0.0
12,0.0
13,0.0
14,6.811433349050916
15,-10.815183331738588
16,3.4448363134054036
17,-8.346384738067173
18,7.456203327641106
2,1, 1, 1, 0, 1,45.00,60.00,Tuesday
7,-12.2
8,0.0
9,0.0
10,0.0
11,0.0
12,0.0
13,0.0
14,6.591168783854657
15,-13.296958625465872
16,2.8206890561348247
17,-10.44766630090038
18,7.300822718896612
2,1, 1, 1, 0, 2, 0.00,15.00,Tuesday
7,-12.075
8,0.0
9,0.0
10,0.0
11,0.0
12,0.0
13,0.0
14,6.518467864920956
15,-13.097763970418418
16,2.74856682172981
17,-10.287404614460002
18,7.160804682612944
2,1, 1, 1, 0, 2,15.00,30.00,Tuesday
7,-11.95
8,0.0
9,0.0
10,0.0
11,0.0
12,0.0
13,0.0
14,6.432552787456204
15,-12.92078202850565
16,2.7106298952694489
17,-10.14364392689248
18,7.052826539833105
2,1, 1, 1, 0, 2,30.00,45.00,Tuesday
7,-11.825
8,0.0
9,0.0
10,0.0
11,0.0
12,0.0
13,0.0
14,6.363864937050546
15,-12.742649636541389
16,2.678523467109244
17,-9.999447270411736
18,6.97117953232999
2,1, 1, 1, 0, 2,45.00,60.00,Tuesday
7,-11.7
8,0.0
9,0.0
10,0.0
11,0.0
12,0.0
13,0.0
14,6.306291563732608
15,-12.564602719241915
16,2.659116327337074
17,-9.8526151152912
18,6.904726316130638
2,1, 1, 1, 0, 3, 0.00,15.00,Tuesday
7,-11.549999999999999
8,0.0
9,0.0
10,0.0
11,0.0
12,0.0
13,0.0
14,6.250374275669303
15,-12.437739238151183
16,2.6476320193706899
17,-9.70330368310374
18,6.844591688541163
2,1, 1, 1, 0, 3,15.00,30.00,Tuesday
7,-11.399999999999999
8,0.0
9,0.0
10,0.0
11,0.0
12,0.0
13,0.0
14,6.197543743670823
15,-12.312210778528057
16,2.637968451263646
17,-9.553773958986256
18,6.786503842820423
2,1, 1, 1, 0, 3,30.00,45.00,Tuesday
7,-11.25
8,0.0
9,0.0
10,0.0
11,0.0
12,0.0
13,0.0
14,6.145577816331596
15,-12.188164379815744
16,2.6337453883176638
17,-9.413366038279719
18,6.72935933804426
2,1, 1, 1, 0, 3,45.00,60.00,Tuesday
7,-11.1
8,0.0
9,0.0
10,0.0
11,0.0
12,0.0
13,0.0
14,6.094022143333244
15,-12.065652708043079
16,2.622945024411024
17,-9.254234835309433
18,6.672958896153046
2,1, 1, 1, 0, 4, 0.00,15.00,Tuesday
7,-11.1
8,0.0
9,0.0
10,0.0
11,0.0
12,0.0
13,0.0
14,6.038734572271128
15,-12.038379517798182
16,2.5652453590377606
17,-9.29541780930299
18,6.616420530999897
2,1, 1, 1, 0, 4,15.00,30.00,Tuesday
7,-11.1
8,0.0
9,0.0
10,0.0
11,0.0
12,0.0
13,0.0
14,5.983826376348872
15,-12.01215374012419
16,2.510887220931181
17,-9.335427359952974
18,6.559409419985274
2,1, 1, 1, 0, 4,30.00,45.00,Tuesday
7,-11.1
8,0.0
9,0.0
10,0.0
11,0.0
12,0.0
13,0.0
14,5.928727173208226
15,-11.987407345857763
16,2.456900341248229
17,-9.374411864899912
18,6.502066015071404
2,1, 1, 1, 0, 4,45.00,60.00,Tuesday
7,-11.1
8,0.0
9,0.0
10,0.0
11,0.0
12,0.0
13,0.0
14,5.873555131725185
15,-11.964011277336262
16,2.4031168072356197
17,-9.412291265228589
18,6.444626913750154
2,1, 1, 1, 0, 5, 0.00,15.00,Tuesday
7,-10.975
8,0.0
9,0.0
10,0.0
11,0.0
12,0.0
13,0.0
14,5.8239938878406509
15,-11.842160117168252
16,2.3866781099947049
17,-9.326855968615803
18,6.388334225763437
2,1, 1, 1, 0, 5,15.00,30.00,Tuesday
7,-10.85
8,0.0
9,0.0
10,0.0
11,0.0
12,0.0
13,0.0
14,5.7746639417766139
15,-11.720371528900753
16,2.36800191183994
17,-9.233315076452243
18,6.33367603194372
2,1, 1, 1, 0, 5,30.00,45.00,Tuesday
7,-10.725
8,0.0
9,0.0
10,0.0
11,0.0
12,0.0
13,0.0
14,5.726387113314996
15,-11.598559749784008
16,2.349624342177435
17,-9.138922184405772
18,6.2804114079071449
2,1, 1, 1, 0, 5,45.00,60.00,Tuesday
7,-10.6
8,0.0
9,0.0
10,0.0
11,0.0
12,0.0
13,0.0
14,5.678982745522338
15,-11.476757319057909
16,2.33206902430112
17,-9.044289886429113
18,6.228152744783273
2,1, 1, 1, 0, 6, 0.00,15.00,Tuesday
7,-10.6
8,0.0
9,0.0
10,0.0
11,0.0
12,0.0
13,0.0
14,5.624710617957863
15,-11.477807988426936
16,2.2858245142946886
17,-9.046332904433598
18,6.175288093331076
2,1, 1, 1, 0, 6,15.00,30.00,Tuesday
7,-10.6
8,0.0
9,0.0
10,0.0
11,0.0
12,0.0
13,0.0
14,5.5710790076711869
15,-11.478813181876344
16,2.240669120412747
17,-9.054922070009184
18,6.121116721913009
2,1, 1, 1, 0, 6,30.00,45.00,Tuesday
7,-10.6
8,0.0
9,0.0
10,0.0
11,0.0
12,0.0
13,0.0
14,5.51691793658096
15,-11.479860207876328
16,2.1957030273464399
17,-9.064080497625242
18,6.065932577172706
2,1, 1, 1, 0, 6,45.00,60.00,Tuesday
7,-10.6
8,0.0
9,0.0
10,0.0
11,0.0
12,0.0
13,0.0
14,5.462460997058468
15,-11.480904702338718
16,2.150384981585489
17,-9.073381863114605
18,6.010256562046018
2,1, 1, 1, 0, 7, 0.00,15.00,Tuesday
7,-10.6
8,0.0
9,0.0
10,0.0
11,0.0
12,0.0
13,0.0
14,5.409928440209398
15,-11.458339173323463
16,2.0978346927793156
17,-9.105801137007234
18,5.954739495128577
2,1, 1, 1, 0, 7,15.00,30.00,Tuesday
7,-10.6
8,0.0
9,0.0
10,0.0
11,0.0
12,0.0
13,0.0
14,5.357297280573339
15,-11.436943890448664
16,2.047263575420743
17,-9.13848895444471
18,5.899717751367338
2,1, 1, 1, 0, 7,30.00,45.00,Tuesday
7,-10.6
8,0.0
9,0.0
10,0.0
11,0.0
12,0.0
13,0.0
14,5.304968471219011
15,-11.416638933431394
16,1.997169708477827
17,-9.170332658956682
18,5.84517387730857
2,1, 1, 1, 0, 7,45.00,60.00,Tuesday
7,-10.6
8,0.0
9,0.0
10,0.0
11,0.0
12,0.0
13,0.0
14,5.252947005851728
15,-11.397359470176652
16,1.9475967959634205
17,-9.20118241066018
18,5.790998052520523
2,1, 1, 1, 0, 8, 0.00,15.00,Tuesday
7,-10.45
8,0.0
9,0.0
10,0.0
11,0.0
12,0.0
13,0.0
14,5.200453206143416
15,-11.34770381781802
16,1.9240764058590685
17,-9.147804950141165
18,5.7368993719837919
2,1, 1, 1, 0, 8,15.00,30.00,Tuesday
7,-10.3
8,181.53280301124716
9,1.0
10,22.819555959623899
11,1.0
12,22.819555959623899
13,181.53280301124716
14,5.272579195219752
15,-9.67386102418205
16,2.2089289032160197
17,-8.825257675256922
18,5.702122483206008
2,1, 1, 1, 0, 8,30.00,45.00,Tuesday
7,-10.15
8,891.3278823594253
9,1.0
10,109.75755355442667
11,1.0
12,109.75755355442667
13,891.3278823594253
14,5.68507619445104
15,-3.300253171626135
16,3.431224134006584
17,-7.7420071922883839
18,5.740481310893333
2,1, 1, 1, 0, 8,45.00,60.00,Tuesday
7,-10.0
8,1620.7840671873826
9,1.0
10,195.8764694434918
11,1.0
12,195.8764694434918
13,1620.7840671873826
14,6.2070550463243949
15,3.176833906568551
16,4.783069745867863
17,-6.6630653143300269
18,5.859678407795962
2,1, 1, 1, 0, 9, 0.00,15.00,Tuesday
7,-9.725
8,2347.727724178928
9,1.0
10,278.97248314719988
11,1.0
12,278.97248314719988
13,2347.727724178928
14,6.657970502675099
15,8.356288346189754
16,6.196800375634837
17,-5.684081553857311
18,6.035129602815712
2,1, 1, 1, 0, 9,15.00,30.00,Tuesday
7,-9.45
8,3114.0096416305138
9,1.0
10,364.91995730569456
11,1.0
12,364.91995730569456
13,3114.0096416305138
14,7.1181707861521119
15,13.43185944562242
16,7.6017037330376528
17,-4.706104349370605
18,6.25721704325454
2,1, 1, 1, 0, 9,30.00,45.00,Tuesday
7,-9.175
8,3620.9788466187658
9,1.0
10,420.35879993239237
11,1.0
12,420.35879993239237
13,3620.9788466187658
14,7.4485335655037929
15,16.18890436497956
16,8.54373485344513
17,-4.102211708327445
18,6.505284130817877
2,1, 1, 1, 0, 9,45.00,60.00,Tuesday
7,-8.9
8,4147.254307348187
9,1.0
10,478.00138373643099
11,1.0
12,478.00138373643099
13,4147.254307348187
14,7.834782903310499
15,19.1832459079862
16,9.477110463245083
17,-3.4782716395371837
18,6.768552198723604
2,1, 1, 1, 0,10, 0.00,15.00,Tuesday
7,-8.350000000000002
8,4684.648484144343
9,1.0
10,536.9185644770597
11,1.0
12,536.9185644770597
13,4684.648484144343
14,8.169824545652644
15,20.298263030320354
16,10.442698388269037
17,-2.809782739798493
18,7.047095027517621
2,1, 1, 1, 0,10,15.00,30.00,Tuesday
7,-7.800000000000001
8,5240.608015714945
9,1.0
10,598.0969199229219
11,1.0
12,598.0969199229219
13,5240.608015714945
14,8.535386029504246
15,21.549355431891717
16,11.424928601393845
17,-2.1408726365223744
18,7.346362883657988
2,1, 1, 1, 0,10,30.00,45.00,Tuesday
7,-7.25
8,5605.323921093528
9,1.0
10,637.6133352894237
11,1.0
12,637.6133352894237
13,5605.323921093528
14,8.822385897430872
15,21.607267710545334
16,12.144832451813329
17,-1.6645410639329157
18,7.4726517520285349
2,1, 1, 1, 0,10,45.00,60.00,Tuesday
7,-6.7
8,5964.667754902514
9,1.0
10,676.6412284283772
11,1.0
12,676.6412284283772
13,5964.667754902514
14,9.087525894564246
15,21.764778840996983
16,12.81264323173707
17,-1.1938348899101357
18,7.7223527076514799
2,1, 1, 1, 0,11, 0.00,15.00,Tuesday
7,-6.275
8,6317.474208179253
9,1.0
10,715.0112779846514
11,1.0
12,715.0112779846514
13,6317.474208179253
14,9.400530430829079
15,23.86172797378163
16,13.491206317836032
17,-0.5087976352879764
18,7.91549343874458
2,1, 1, 1, 0,11,15.00,30.00,Tuesday
7,-5.85
8,6661.976035385195
9,1.0
10,752.5077794605232
11,1.0
12,752.5077794605232
13,6661.976035385195
14,9.782471540440957
15,25.79863549426997
16,14.19734023737908
17,0.1622029777795433
18,8.368783429969302
2,1, 1, 1, 0,11,30.00,45.00,Tuesday
7,-5.425
8,6559.590639127897
9,1.0
10,742.5988714321785
11,1.0
12,742.5988714321785
13,6559.590639127897
14,10.078840518839244
15,25.652328849576365
16,14.423202236470843
17,0.46993003674469949
18,8.771200197526503
2,1, 1, 1, 0,11,45.00,60.00,Tuesday
7,-5.0
8,6413.2938485147019
9,1.0
10,727.8169025450712
11,1.0
12,727.8169025450712
13,6413.2938485147019
14,10.336451351912057
15,25.42344916506152
16,14.565044949399976
17,0.7482460979834968
18,9.114169196177361
2,1, 1, 1, 0,12, 0.00,15.00,Tuesday
7,-4.575
8,6161.707695169875
9,1.0
10,700.3759009170325
11,1.0
12,700.3759009170325
13,6161.707695169875
14,10.519853616535464
15,24.681438747423305
16,14.54758762543645
17,0.9719265080607329
18,9.404271641388377
2,1, 1, 1, 0,12,15.00,30.00,Tuesday
7,-4.15
8,5975.124016097185
9,1.0
10,681.6705029034473
11,1.0
12,681.6705029034473
13,5975.124016097185
14,10.687684751829602
15,24.350688576465119
16,14.579875743975663
17,1.2564759270820219
18,9.655857249285472
2,1, 1, 1, 0,12,30.00,45.00,Tuesday
7,-3.7249999999999998
8,5245.661247450245
9,1.0
10,602.01865277251
11,1.0
12,602.01865277251
13,5245.661247450245
14,10.633957071848688
15,21.323470375084825
16,13.922091645361207
17,1.0927161626927387
18,9.84592793547627
2,1, 1, 1, 0,12,45.00,60.00,Tuesday
7,-3.3
8,4284.197434080928
9,1.0
10,493.55004396206007
11,1.0
12,493.55004396206007
13,4284.197434080928
14,10.442705634055656
15,17.145448791797106
16,12.82251072534541
17,0.6895540272342942
18,9.947341817811461
2,1, 1, 1, 0,13, 0.00,15.00,Tuesday
7,-3.0249999999999996
8,3537.445593115435
9,1.0
10,412.335026418112
11,1.0
12,412.335026418112
13,3537.445593115435
14,10.311294788320762
15,14.302072038497748
16,11.934873757964454
17,0.4226733028701801
18,9.97783157365188
2,1, 1, 1, 0,13,15.00,30.00,Tuesday
7,-2.75
8,2590.853186043415
9,1.0
10,305.94037763660148
11,1.0
12,305.94037763660148
13,2590.853186043415
14,9.994504053726878
15,10.129474498392299
16,10.684673935256342
17,-0.060554813074077177
18,9.948129030997987
2,1, 1, 1, 0,13,30.00,45.00,Tuesday
7,-2.475
8,2365.357246120335
9,1.0
10,281.0763483922329
11,1.0
12,281.0763483922329
13,2365.357246120335
14,9.967051446363242
15,9.617764748840795
16,10.376395127119963
17,0.07081767385182047
18,9.899858583425502
2,1, 1, 1, 0,13,45.00,60.00,Tuesday
7,-2.2
8,2144.5586982865008
9,1.0
10,256.7721209415886
11,1.0
12,256.7721209415886
13,2144.5586982865008
14,9.931096193449687
15,9.011411969752862
16,10.14867564741536
17,0.22711158147728839
18,9.858674468548872
2,1, 1, 1, 0,14, 0.00,15.00,Tuesday
7,-1.9250000000000003
8,1751.8863449049696
9,1.0
10,210.73276284570657
11,1.0
12,210.73276284570657
13,1751.8863449049696
14,9.779725760504129
15,7.464607315481374
16,9.58795931288671
17,0.1711763994156854
18,9.821740383882043
2,1, 1, 1, 0,14,15.00,30.00,Tuesday
7,-1.6500000000000002
8,1556.2405744298179
9,1.0
10,189.38488290342594
11,1.0
12,189.38488290342594
13,1556.2405744298179
14,9.742409810536629
15,7.061348947875587
16,9.340115249777285
17,0.3063228163300664
18,9.788616298349498
2,1, 1, 1, 0,14,30.00,45.00,Tuesday
7,-1.375
8,1484.2130869693643
9,1.0
10,179.3940297802914
11,1.0
12,179.3940297802914
13,1484.2130869693643
14,9.731207368441622
15,7.185332268733134
16,9.290243457956194
17,0.5469419513175353
18,9.760520480313489
2,1, 1, 1, 0,14,45.00,60.00,Tuesday
7,-1.1
8,1411.362724961817
9,1.0
10,169.43349014176136
11,1.0
12,169.43349014176136
13,1411.362724961817
14,9.716196214147234
15,7.285417731881774
16,9.233372294293418
17,0.7860642879156785
18,9.736812897864907
2,1, 1, 1, 0,15, 0.00,15.00,Tuesday
7,-1.1
8,1485.5478120977
9,1.0
10,178.15692317953907
11,1.0
12,178.15692317953907
13,1485.5478120977
14,9.78035891638394
15,8.10470665268163
16,9.360078624385551
17,0.9195473193695989
18,9.721308916302738
2,1, 1, 1, 0,15,15.00,30.00,Tuesday
7,-1.1
8,1395.6313707719838
9,1.0
10,166.40516310952945
11,1.0
12,166.40516310952945
13,1395.6313707719838
14,9.727005203356097
15,7.742164012121881
16,9.22612336844071
17,0.8724787242929324
18,9.708596768680227
2,1, 1, 1, 0,15,30.00,45.00,Tuesday
7,-1.1
8,1176.7712955684957
9,1.0
10,140.8967369711617
11,1.0
12,140.8967369711617
13,1176.7712955684957
14,9.598143482306146
15,6.534116549024654
16,8.858431276588249
17,0.6701113010072959
18,9.688132698965172
2,1, 1, 1, 0,15,45.00,60.00,Tuesday
7,-1.1
8,968.3868714642877
9,1.0
10,116.57355796743004
11,1.0
12,116.57355796743004
13,968.3868714642877
14,9.487146304458263
15,5.331336725612958
16,8.492435344866692
17,0.4590182345169751
18,9.647365539970299
2,1, 1, 1, 0,16, 0.00,15.00,Tuesday
7,-1.1
8,768.567072310748
9,1.0
10,93.14939272689483
11,1.0
12,93.14939272689483
13,768.567072310748
14,9.375992427200363
15,4.28199965440667
16,8.167374933670317
17,0.331624375505271
18,9.584740849693013
2,1, 1, 1, 0,16,15.00,30.00,Tuesday
7,-1.1
8,477.1278311199492
9,1.0
10,57.94047897402063
11,1.0
12,57.94047897402063
13,477.1278311199492
14,9.172428058105812
15,2.1608388611633124
16,7.667033231255971
17,0.06275109453355299
18,9.495047908019073
2,1, 1, 1, 0,16,30.00,45.00,Tuesday
7,-1.1
8,369.92992568872679
9,1.0
10,45.38251793443488
11,1.0
12,45.38251793443488
13,369.92992568872679
14,9.089636883604096
15,1.5536471980140579
16,7.444615076663013
17,0.02702664515243214
18,9.39437758765376
2,1, 1, 1, 0,16,45.00,60.00,Tuesday
7,-1.1
8,258.23559610460418
9,1.0
10,32.02625108222755
11,1.0
12,32.02625108222755
13,258.23559610460418
14,8.96783442468954
15,0.6944184847336699
16,7.237883294249286
17,-0.01082578596839312
18,9.296038372917133
2,1, 1, 1, 0,17, 0.00,15.00,Tuesday
7,-1.1
8,141.6418627784957
9,1.0
10,17.762198626050539
11,1.0
12,17.762198626050539
13,141.6418627784957
14,8.822091628564437
15,-0.5512988215822584
16,6.9794523759171629
17,-0.1587520225989465
18,9.198632707446253
2,1, 1, 1, 0,17,15.00,30.00,Tuesday
7,-1.1
8,0.0
9,0.0
10,0.0
11,0.0
12,0.0
13,0.0
14,8.626510974790577
15,-2.385947755345688
16,6.643204186560524
17,-0.42653450853390498
18,9.089175857579887
2,1, 1, 1, 0,17,30.00,45.00,Tuesday
7,-1.1
8,0.0
9,0.0
10,0.0
11,0.0
12,0.0
13,0.0
14,8.565767336436093
15,-2.5192659662000689
16,6.556205775299134
17,-0.4025262572644124
18,8.982549661175906
2,1, 1, 1, 0,17,45.00,60.00,Tuesday
7,-1.1
8,0.0
9,0.0
10,0.0
11,0.0
12,0.0
13,0.0
14,8.489101557600982
15,-2.7056944526512529
16,6.510615850949762
17,-0.36319671306898729
18,8.892674174255408
2,1, 1, 1, 0,18, 0.00,15.00,Tuesday
7,-1.25
8,0.0
9,0.0
10,0.0
11,0.0
12,0.0
13,0.0
14,8.423929886975227
15,-2.85412936876274
16,6.41684067247877
17,-0.5053638301453702
18,8.820020270916193
2,1, 1, 1, 0,18,15.00,30.00,Tuesday
7,-1.4
8,0.0
9,0.0
10,0.0
11,0.0
12,0.0
13,0.0
14,8.364315791905913
15,-3.0065861626546197
16,6.3396905325611219
17,-0.6328163166363652
18,8.759034598595639
2,1, 1, 1, 0,18,30.00,45.00,Tuesday
7,-1.5499999999999999
8,0.0
9,0.0
10,0.0
11,0.0
12,0.0
13,0.0
14,8.308877242392202
15,-3.1586507666448564
16,6.264498263886367
17,-0.7645309352712388
18,8.704238581698128
2,1, 1, 1, 0,18,45.00,60.00,Tuesday
7,-1.7
8,0.0
9,0.0
10,0.0
11,0.0
12,0.0
13,0.0
14,8.25539772776034
15,-3.3108840291910535
16,6.192237995443975
17,-0.895491990282494
18,8.652286390975583
2,1, 1, 1, 0,19, 0.00,15.00,Tuesday
7,-1.825
8,0.0
9,0.0
10,0.0
11,0.0
12,0.0
13,0.0
14,8.225888241392657
15,-3.1706363015089784
16,6.105108431428903
17,-1.0755544968168352
18,8.605015551103625
2,1, 1, 1, 0,19,15.00,30.00,Tuesday
7,-1.9500000000000002
8,0.0
9,0.0
10,0.0
11,0.0
12,0.0
13,0.0
14,8.195142169212306
15,-3.1108606745503106
16,6.034083719970965
17,-1.2402850065618623
18,8.564203283973379
2,1, 1, 1, 0,19,30.00,45.00,Tuesday
7,-2.075
8,0.0
9,0.0
10,0.0
11,0.0
12,0.0
13,0.0
14,8.16024598704899
15,-3.186573911777335
16,5.979795746532943
17,-1.3618153013198935
18,8.528495727018445
2,1, 1, 1, 0,19,45.00,60.00,Tuesday
7,-2.2
8,0.0
9,0.0
10,0.0
11,0.0
12,0.0
13,0.0
14,8.128071354342258
15,-3.1704891396243668
16,5.913273983418094
17,-1.5184139097885919
18,8.494840446076602
2,1, 1, 1, 0,20, 0.00,15.00,Tuesday
7,-1.9250000000000003
8,0.0
9,0.0
10,0.0
11,0.0
12,0.0
13,0.0
14,8.111618409564139
15,-2.870839913753664
16,5.948329079300947
17,-1.3170839319466268
18,8.463850400720727
2,1, 1, 1, 0,20,15.00,30.00,Tuesday
7,-1.6500000000000002
8,0.0
9,0.0
10,0.0
11,0.0
12,0.0
13,0.0
14,8.095600071250923
15,-2.574034519283074
16,5.9813508745077119
17,-1.1041990577743946
18,8.436123402972099
2,1, 1, 1, 0,20,30.00,45.00,Tuesday
7,-1.375
8,0.0
9,0.0
10,0.0
11,0.0
12,0.0
13,0.0
14,8.081401923289058
15,-2.278443717628974
16,6.016009491149589
17,-0.8889170965138646
18,8.411275240185916
2,1, 1, 1, 0,20,45.00,60.00,Tuesday
7,-1.1
8,0.0
9,0.0
10,0.0
11,0.0
12,0.0
13,0.0
14,8.068798520238446
15,-1.9840537986085936
16,6.052742119090681
17,-0.6713880045175529
18,8.388588926878919
2,1, 1, 1, 0,21, 0.00,15.00,Tuesday
7,-1.25
8,0.0
9,0.0
10,0.0
11,0.0
12,0.0
13,0.0
14,8.01666795855474
15,-2.258899842117215
16,6.013531574774788
17,-0.7360845392250894
18,8.36134838227525
2,1, 1, 1, 0,21,15.00,30.00,Tuesday
7,-1.4
8,0.0
9,0.0
10,0.0
11,0.0
12,0.0
13,0.0
14,7.9652825195801439
15,-2.4721221079224184
16,5.958274385498498
17,-0.8273767641797463
18,8.32494980483526
2,1, 1, 1, 0,21,30.00,45.00,Tuesday
7,-1.5499999999999999
8,0.0
9,0.0
10,0.0
11,0.0
12,0.0
13,0.0
14,7.900976423837663
15,-2.808082550416864
16,5.911568258258285
17,-0.8812289738896766
18,8.278707938895116
2,1, 1, 1, 0,21,45.00,60.00,Tuesday
7,-1.7
8,0.0
9,0.0
10,0.0
11,0.0
12,0.0
13,0.0
14,7.831403601949114
15,-3.250348263448396
16,5.86567758842034
17,-0.9042667002392477
18,8.224967422641499
2,1, 1, 1, 0,22, 0.00,15.00,Tuesday
7,-1.5499999999999999
8,0.0
9,0.0
10,0.0
11,0.0
12,0.0
13,0.0
14,7.827888311280505
15,-2.7741463400199519
16,5.823909729068646
17,-0.8960812608103765
18,8.177032046923753
2,1, 1, 1, 0,22,15.00,30.00,Tuesday
7,-1.4
8,0.0
9,0.0
10,0.0
11,0.0
12,0.0
13,0.0
14,7.8131099101603349
15,-2.4517184483445808
16,5.817582632695121
17,-0.8490383493461877
18,8.141811987428114
2,1, 1, 1, 0,22,30.00,45.00,Tuesday
7,-1.25
8,0.0
9,0.0
10,0.0
11,0.0
12,0.0
13,0.0
14,7.79875317897767
15,-2.235023799316918
16,5.823587055118196
17,-0.7623896542794455
18,8.116959424319813
2,1, 1, 1, 0,22,45.00,60.00,Tuesday
7,-1.1
8,0.0
9,0.0
10,0.0
11,0.0
12,0.0
13,0.0
14,7.788192720137974
15,-1.958681323459708
16,5.825973622384481
17,-0.6904733292478795
18,8.097237229222622
2,1, 1, 1, 0,23, 0.00,15.00,Tuesday
7,-1.25
8,0.0
9,0.0
10,0.0
11,0.0
12,0.0
13,0.0
14,7.735307373761559
15,-2.2619526064384956
16,5.732745852888797
17,-0.9677570952499082
18,8.07222684506371
2,1, 1, 1, 0,23,15.00,30.00,Tuesday
7,-1.4
8,0.0
9,0.0
10,0.0
11,0.0
12,0.0
13,0.0
14,7.684596331717531
15,-2.5666352511811816
16,5.627711778538014
17,-1.2594187743299017
18,8.036989392729345
2,1, 1, 1, 0,23,30.00,45.00,Tuesday
7,-1.5499999999999999
8,0.0
9,0.0
10,0.0
11,0.0
12,0.0
13,0.0
14,7.629099008225308
15,-2.8719615550846986
16,5.52067017067975
17,-1.5527042032281316
18,7.992844537542758
2,1, 1, 1, 0,23,45.00,60.00,Tuesday
7,-1.7
8,0.0
9,0.0
10,0.0
11,0.0
12,0.0
13,0.0
14,7.569694999711808
15,-3.1776325065910244
16,5.40943384663035
17,-1.8481180594737908
18,7.94285328072717
2,1, 1, 1, 0,24, 0.00,15.00,Tuesday
7,-1.7
8,0.0
9,0.0
10,0.0
11,0.0
12,0.0
13,0.0
14,7.526013959999969
15,-3.231833191206787
16,5.354711246821239
17,-1.915518724861954
18,7.892614239669593
2,1, 1, 1, 0,24,15.00,30.00,Tuesday
7,-1.7
8,0.0
9,0.0
10,0.0
11,0.0
12,0.0
13,0.0
14,7.480297329831209
15,-3.286598251400895
16,5.304813536446773
17,-1.9785358738599826
18,7.845036777283149
2,1, 1, 1, 0,24,30.00,45.00,Tuesday
7,-1.7
8,0.0
9,0.0
10,0.0
11,0.0
12,0.0
13,0.0
14,7.435731093274315
15,-3.3412555484337949
16,5.254766655602964
17,-2.0413169247565294
18,7.800015253042188
2,1, 1, 1, 0,24,45.00,60.00,Tuesday
7,-1.7
8,0.0
9,0.0
10,0.0
11,0.0
12,0.0
13,0.0
14,7.392010065782364
15,-3.395916424092024
16,5.205676252276874
17,-2.1037394310974379
18,7.7564776430015309
End of Data
 Number of Records Written=        1152
