Program Version,EnergyPlus, Version 9.5.0-de239b2e5f, YMD=2022.11.08 09:46
1,5,Environment Title[],Latitude[deg],Longitude[deg],Time Zone[],Elevation[m]
2,8,Day of Simulation[],Month[],Day of Month[],DST Indicator[1=yes 0=no],Hour[],StartMinute[],EndMinute[],DayType
3,5,Cumulative Day of Simulation[],Month[],Day of Month[],DST Indicator[1=yes 0=no],DayType  ! When Daily Report Variables Requested
4,2,Cumulative Days of Simulation[],Month[]  ! When Monthly Report Variables Requested
5,1,Cumulative Days of Simulation[] ! When Run Period Report Variables Requested
6,1,Calendar Year of Simulation[] ! When Annual Report Variables Requested
7,1,Environment,Site Outdoor Air Drybulb Temperature [C] !TimeStep
8,1,ZONE ONE,Zone Windows Total Transmitted Solar Radiation Rate [W] !TimeStep
9,1,ZN001:WALL001,Surface Outside Face Sunlit Fraction [] !TimeStep
10,1,ZN001:WALL001,Surface Outside Face Incident Solar Radiation Rate per Area [W/m2] !TimeStep
11,1,ZN001:WALL001:WIN001,Surface Outside Face Sunlit Fraction [] !TimeStep
12,1,ZN001:WALL001:WIN001,Surface Outside Face Incident Solar Radiation Rate per Area [W/m2] !TimeStep
13,1,ZN001:WALL001:WIN001,Surface Window Transmitted Solar Radiation Rate [W] !TimeStep
14,1,ZN001:WALL001,Surface Inside Face Temperature [C] !TimeStep
15,1,ZN001:WALL001,Surface Outside Face Temperature [C] !TimeStep
16,1,ZN001:WALL001:WIN001,Surface Inside Face Temperature [C] !TimeStep
17,1,ZN001:WALL001:WIN001,Surface Outside Face Temperature [C] !TimeStep
18,1,ZONE ONE,Zone Mean Air Temperature [C] !TimeStep
End of Data Dictionary
1,RUN PERIOD 1,  41.98, -87.92,  -6.00, 201.00
2,1, 1, 1, 0, 1, 0.00,15.00,Tuesday
7,-4.324999999999999
8,0.0
9,0.0
10,0.0
11,0.0
12,0.0
13,0.0
14,3.4436917962216797
15,-5.941225169792293
16,1.5515276030739074
17,-4.8002544581401029
18,3.8408243794510614
2,1, 1, 1, 0, 1,15.00,30.00,Tuesday
7,-6.949999999999999
8,0.0
9,0.0
10,0.0
11,0.0
12,0.0
13,0.0
14,3.2657017298289876
15,-8.40899826592958
16,0.9397112646313417
17,-6.887944264427972
18,3.7506714050680309
2,1, 1, 1, 0, 1,30.00,45.00,Tuesday
7,-9.575
8,0.0
9,0.0
10,0.0
11,0.0
12,0.0
13,0.0
14,3.0678657649745268
15,-10.884922252802366
16,0.32391789693753028
17,-8.982233249034153
18,3.6279959942246555
2,1, 1, 1, 0, 1,45.00,60.00,Tuesday
7,-12.2
8,0.0
9,0.0
10,0.0
11,0.0
12,0.0
13,0.0
14,2.8542111243764709
15,-13.367431059836085
16,-0.30596976820561397
17,-11.084485399507912
18,3.482316456194903
2,1, 1, 1, 0, 2, 0.00,15.00,Tuesday
7,-12.075
8,0.0
9,0.0
10,0.0
11,0.0
12,0.0
13,0.0
14,2.793275534441539
15,-13.168786085429514
16,-0.3703880496654506
17,-10.932488451635038
18,3.350733447278523
2,1, 1, 1, 0, 2,15.00,30.00,Tuesday
7,-11.95
8,0.0
9,0.0
10,0.0
11,0.0
12,0.0
13,0.0
14,2.718118277223191
15,-12.991575371963624
16,-0.3973289491422065
17,-10.785892554098269
18,3.2508209447557068
2,1, 1, 1, 0, 2,30.00,45.00,Tuesday
7,-11.825
8,0.0
9,0.0
10,0.0
11,0.0
12,0.0
13,0.0
14,2.6600050568042277
15,-12.813182226321772
16,-0.41902466408612329
17,-10.638917272112622
18,3.1778095088445554
2,1, 1, 1, 0, 2,45.00,60.00,Tuesday
7,-11.7
8,0.0
9,0.0
10,0.0
11,0.0
12,0.0
13,0.0
14,2.6132065207064367
15,-12.634856879630755
16,-0.4280708926603438
17,-10.489284252147116
18,3.1209403384601774
2,1, 1, 1, 0, 3, 0.00,15.00,Tuesday
7,-11.549999999999999
8,0.0
9,0.0
10,0.0
11,0.0
12,0.0
13,0.0
14,2.5681247179294406
15,-12.509673918909702
16,-0.42830654392389536
17,-10.35686529897248
18,3.0712506300764219
2,1, 1, 1, 0, 3,15.00,30.00,Tuesday
7,-11.399999999999999
8,0.0
9,0.0
10,0.0
11,0.0
12,0.0
13,0.0
14,2.5263963861835045
15,-12.385896267627603
16,-0.4294566606055241
17,-10.215820994472154
18,3.024126528559706
2,1, 1, 1, 0, 3,30.00,45.00,Tuesday
7,-11.25
8,0.0
9,0.0
10,0.0
11,0.0
12,0.0
13,0.0
14,2.4856387859088695
15,-12.263690458240838
16,-0.4291850016512626
17,-10.073914739053294
18,2.978107454830868
2,1, 1, 1, 0, 3,45.00,60.00,Tuesday
7,-11.1
8,0.0
9,0.0
10,0.0
11,0.0
12,0.0
13,0.0
14,2.4454082395281726
15,-12.143115650045152
16,-0.42828402036855098
17,-9.93213678912565
18,2.9329438033625334
2,1, 1, 1, 0, 4, 0.00,15.00,Tuesday
7,-11.1
8,0.0
9,0.0
10,0.0
11,0.0
12,0.0
13,0.0
14,2.4015256829375395
15,-12.113403419134551
16,-0.4765023012645315
17,-9.952252143874603
18,2.8877619974498209
2,1, 1, 1, 0, 4,15.00,30.00,Tuesday
7,-11.1
8,0.0
9,0.0
10,0.0
11,0.0
12,0.0
13,0.0
14,2.3580472749724517
15,-12.084840918031145
16,-0.5191096993804649
17,-9.979447086521362
18,2.8422299117950837
2,1, 1, 1, 0, 4,30.00,45.00,Tuesday
7,-11.1
8,0.0
9,0.0
10,0.0
11,0.0
12,0.0
13,0.0
14,2.314410827826269
15,-12.057872004634028
16,-0.56097568044936
17,-10.006511585399892
18,2.7964482046807075
2,1, 1, 1, 0, 4,45.00,60.00,Tuesday
7,-11.1
8,0.0
9,0.0
10,0.0
11,0.0
12,0.0
13,0.0
14,2.27070925550097
15,-12.032363994779834
16,-0.6026374513337487
17,-10.032797076176735
18,2.7506028457846685
2,1, 1, 1, 0, 5, 0.00,15.00,Tuesday
7,-10.975
8,0.0
9,0.0
10,0.0
11,0.0
12,0.0
13,0.0
14,2.232676977283388
15,-11.910237983214417
16,-0.6088577630106329
17,-9.945106357018404
18,2.705832139246174
2,1, 1, 1, 0, 5,15.00,30.00,Tuesday
7,-10.85
8,0.0
9,0.0
10,0.0
11,0.0
12,0.0
13,0.0
14,2.1948415226530018
15,-11.78819757252463
16,-0.6169946293682642
17,-9.849531659258674
18,2.6626098672368898
2,1, 1, 1, 0, 5,30.00,45.00,Tuesday
7,-10.725
8,0.0
9,0.0
10,0.0
11,0.0
12,0.0
13,0.0
14,2.157987305032685
15,-11.666135882817079
16,-0.6248694530214607
17,-9.753119073609014
18,2.620729758344132
2,1, 1, 1, 0, 5,45.00,60.00,Tuesday
7,-10.6
8,0.0
9,0.0
10,0.0
11,0.0
12,0.0
13,0.0
14,2.121958728955118
15,-11.544083962778723
16,-0.6319785943529723
17,-9.656477134833552
18,2.57983168498192
2,1, 1, 1, 0, 6, 0.00,15.00,Tuesday
7,-10.6
8,0.0
9,0.0
10,0.0
11,0.0
12,0.0
13,0.0
14,2.078771838157139
15,-11.54495274959847
16,-0.6656877214754218
17,-9.659422706500778
18,2.538429087148956
2,1, 1, 1, 0, 6,15.00,30.00,Tuesday
7,-10.6
8,0.0
9,0.0
10,0.0
11,0.0
12,0.0
13,0.0
14,2.036168876600496
15,-11.545746232075619
16,-0.7038909683579959
17,-9.663338570731753
18,2.4956383921118627
2,1, 1, 1, 0, 6,30.00,45.00,Tuesday
7,-10.6
8,0.0
9,0.0
10,0.0
11,0.0
12,0.0
13,0.0
14,1.9930346626037273
15,-11.546586163089728
16,-0.739475101831431
17,-9.670307369438945
18,2.4517207798364866
2,1, 1, 1, 0, 6,45.00,60.00,Tuesday
7,-10.6
8,0.0
9,0.0
10,0.0
11,0.0
12,0.0
13,0.0
14,1.949540837423263
15,-11.547424639202984
16,-0.7752864406359095
17,-9.677734326552184
18,2.4072213235385977
2,1, 1, 1, 0, 7, 0.00,15.00,Tuesday
7,-10.6
8,0.0
9,0.0
10,0.0
11,0.0
12,0.0
13,0.0
14,1.9081392043636705
15,-11.522907600449607
16,-0.8158198984959881
17,-9.699599266738119
18,2.3628596709054068
2,1, 1, 1, 0, 7,15.00,30.00,Tuesday
7,-10.6
8,0.0
9,0.0
10,0.0
11,0.0
12,0.0
13,0.0
14,1.8665902029023194
15,-11.499661341564002
16,-0.8547059439046052
17,-9.7214910343896
18,2.3190030801211307
2,1, 1, 1, 0, 7,30.00,45.00,Tuesday
7,-10.6
8,0.0
9,0.0
10,0.0
11,0.0
12,0.0
13,0.0
14,1.8253204493982649
15,-11.47759447476413
16,-0.893227768334782
17,-9.74277217526435
18,2.2756325724367487
2,1, 1, 1, 0, 7,45.00,60.00,Tuesday
7,-10.6
8,0.0
9,0.0
10,0.0
11,0.0
12,0.0
13,0.0
14,1.784340531928367
15,-11.456637462985622
16,-0.9313108166045367
17,-9.76333174759452
18,2.2326261954242376
2,1, 1, 1, 0, 8, 0.00,15.00,Tuesday
7,-10.45
8,0.0
9,0.0
10,0.0
11,0.0
12,0.0
13,0.0
14,1.7425845720212437
15,-11.40828355018607
16,-0.9479878806799889
17,-9.716567478058892
18,2.1895938607996898
2,1, 1, 1, 0, 8,15.00,30.00,Tuesday
7,-10.3
8,113.15769859673593
9,1.0
10,22.819555959623899
11,1.0
12,22.819555959623899
13,113.15769859673593
14,1.813230790171924
15,-9.735115291375335
16,-0.6028237349484584
17,-9.363232179515649
18,2.162751873916227
2,1, 1, 1, 0, 8,30.00,45.00,Tuesday
7,-10.15
8,555.8522440582658
9,1.0
10,109.75755355442667
11,1.0
12,109.75755355442667
13,555.8522440582658
14,2.1896604906884327
15,-3.371057073132577
16,0.8389644312027258
17,-8.128623830184666
18,2.196849782319416
2,1, 1, 1, 0, 8,45.00,60.00,Tuesday
7,-10.0
8,1011.5868634532139
9,1.0
10,195.8764694434918
11,1.0
12,195.8764694434918
13,1011.5868634532139
14,2.6860589303779407
15,3.136270871399882
16,2.462269641766966
17,-6.8786558551501
18,2.2967687628397797
2,1, 1, 1, 0, 9, 0.00,15.00,Tuesday
7,-9.725
8,1466.6040451197756
9,1.0
10,278.97248314719988
11,1.0
12,278.97248314719988
13,1466.6040451197756
14,3.0394816130357937
15,8.292584023804342
16,3.9765045844571889
17,-5.780248479364218
18,2.4469313500891145
2,1, 1, 1, 0, 9,15.00,30.00,Tuesday
7,-9.45
8,1947.1723786596377
9,1.0
10,364.91995730569456
11,1.0
12,364.91995730569456
13,1947.1723786596377
14,3.4442056387517407
15,13.376006674807013
16,5.464896249630897
17,-4.688573765321735
18,2.63930224315522
2,1, 1, 1, 0, 9,30.00,45.00,Tuesday
7,-9.175
8,2266.4001069264306
9,1.0
10,420.35879993239237
11,1.0
12,420.35879993239237
13,2266.4001069264306
14,3.72232177580389
15,16.134119803678339
16,6.458396840764749
17,-4.014215365550967
18,2.854326988480033
2,1, 1, 1, 0, 9,45.00,60.00,Tuesday
7,-8.9
8,2598.264523873502
9,1.0
10,478.00138373643099
11,1.0
12,478.00138373643099
13,2598.264523873502
14,4.0500850523201559
15,19.129411863822843
16,7.45061602872056
17,-3.316211044330089
18,3.0819544287732825
2,1, 1, 1, 0,10, 0.00,15.00,Tuesday
7,-8.350000000000002
8,2937.62477500192
9,1.0
10,536.9185644770597
11,1.0
12,536.9185644770597
13,2937.62477500192
14,4.320932400282208
15,20.24817337240349
16,8.469099227371317
17,-2.587483788065356
18,3.32290452600013
2,1, 1, 1, 0,10,15.00,30.00,Tuesday
7,-7.800000000000001
8,3289.098673606514
9,1.0
10,598.0969199229219
11,1.0
12,598.0969199229219
13,3289.098673606514
14,4.617419677154006
15,21.502054709674935
16,9.50345360612954
17,-1.8634506847148487
18,3.585326931272626
2,1, 1, 1, 0,10,30.00,45.00,Tuesday
7,-7.25
8,3520.849559773204
9,1.0
10,637.6133352894237
11,1.0
12,637.6133352894237
13,3520.849559773204
14,4.844033169866283
15,21.562640487421786
16,10.238125436311748
17,-1.3630349187735079
18,3.8552178284284395
2,1, 1, 1, 0,10,45.00,60.00,Tuesday
7,-6.7
8,3749.364865377923
9,1.0
10,676.6412284283772
11,1.0
12,676.6412284283772
13,3749.364865377923
14,5.091371117965351
15,21.723512100534319
16,10.9473672864234
17,-0.8668439346209311
18,4.121204880232363
2,1, 1, 1, 0,11, 0.00,15.00,Tuesday
7,-6.275
8,3973.825024106519
9,1.0
10,715.0112779846514
11,1.0
12,715.0112779846514
13,3973.825024106519
14,5.4152211003819279
15,23.821139274145545
16,11.696538309454809
17,-0.13709630799161233
18,4.3855380399699819
2,1, 1, 1, 0,11,15.00,30.00,Tuesday
7,-5.85
8,4193.026229234831
9,1.0
10,752.5077794605232
11,1.0
12,752.5077794605232
13,4193.026229234831
14,5.726820680129847
15,25.756209651645777
16,12.43644489899998
17,0.5717387404064311
18,4.652599992978446
2,1, 1, 1, 0,11,30.00,45.00,Tuesday
7,-5.425
8,4129.787833583804
9,1.0
10,742.5988714321785
11,1.0
12,742.5988714321785
13,4129.787833583804
14,5.907918697570345
15,25.608099029928199
16,12.560150448571733
17,0.8545420594761026
18,4.905706232498857
2,1, 1, 1, 0,11,45.00,60.00,Tuesday
7,-5.0
8,4038.4088982912278
9,1.0
10,727.8169025450712
11,1.0
12,727.8169025450712
13,4038.4088982912278
14,6.084601084130288
15,25.378899685625638
16,12.595790801281624
17,1.1039818478371899
18,5.132756016296416
2,1, 1, 1, 0,12, 0.00,15.00,Tuesday
7,-4.575
8,3880.5302348338534
9,1.0
10,700.3759009170325
11,1.0
12,700.3759009170325
13,3880.5302348338534
14,6.206394750469577
15,24.63629720563384
16,12.47071847848315
17,1.288389373445284
18,5.327332861443324
2,1, 1, 1, 0,12,15.00,30.00,Tuesday
7,-4.15
8,3762.749224539768
9,1.0
10,681.6705029034473
11,1.0
12,681.6705029034473
13,3762.749224539768
14,6.349234012627943
15,24.30584946838288
16,12.436996380044832
17,1.5456372188980368
18,5.496943093487832
2,1, 1, 1, 0,12,30.00,45.00,Tuesday
7,-3.7249999999999998
8,3302.3975311477636
9,1.0
10,602.01865277251
11,1.0
12,602.01865277251
13,3302.3975311477636
14,6.266248670112097
15,21.27752758749862
16,11.608186305252275
17,1.2872855559762684
18,5.621344409968876
2,1, 1, 1, 0,12,45.00,60.00,Tuesday
7,-3.3
8,2696.4812502009756
9,1.0
10,493.55004396206007
11,1.0
12,493.55004396206007
13,2696.4812502009756
14,6.080637687437676
15,17.099058912690209
16,10.309379530820934
17,0.7616274230364297
18,5.678694579941024
2,1, 1, 1, 0,13, 0.00,15.00,Tuesday
7,-3.0249999999999996
8,2224.682943129507
9,1.0
10,412.335026418112
11,1.0
12,412.335026418112
13,2224.682943129507
14,5.948665307457942
15,14.254610980195484
16,9.284362934268643
17,0.40015956628212737
18,5.6826767647156128
2,1, 1, 1, 0,13,15.00,30.00,Tuesday
7,-2.75
8,1627.864427618109
9,1.0
10,305.94037763660148
11,1.0
12,305.94037763660148
13,1627.864427618109
14,5.664374358828033
15,10.081299898376902
16,7.867662119110378
17,-0.20467412821597009
18,5.642890360779652
2,1, 1, 1, 0,13,30.00,45.00,Tuesday
7,-2.475
8,1485.4012601930347
9,1.0
10,281.0763483922329
11,1.0
12,281.0763483922329
13,1485.4012601930347
14,5.645662060749217
15,9.567753904934426
16,7.53713234464044
17,-0.10373205927743357
18,5.590557274572243
2,1, 1, 1, 0,13,45.00,60.00,Tuesday
7,-2.2
8,1345.9090128626108
9,1.0
10,256.7721209415886
11,1.0
12,256.7721209415886
13,1345.9090128626108
14,5.613774178235251
15,8.96143458046047
16,7.274234420937546
17,0.021762528148087769
18,5.545597172966992
2,1, 1, 1, 0,14, 0.00,15.00,Tuesday
7,-1.9250000000000003
8,1098.9759751155394
9,1.0
10,210.73276284570657
11,1.0
12,210.73276284570657
13,1098.9759751155394
14,5.492127558904196
15,7.413299128711066
16,6.668121526578261
17,-0.08890252615390182
18,5.5048091975992199
2,1, 1, 1, 0,14,15.00,30.00,Tuesday
7,-1.6500000000000002
8,975.4428254513715
9,1.0
10,189.38488290342594
11,1.0
12,189.38488290342594
13,975.4428254513715
14,5.463147261452237
15,7.007013062901563
16,6.394381615958423
17,0.012696313855769859
18,5.4690901579081558
2,1, 1, 1, 0,14,30.00,45.00,Tuesday
7,-1.375
8,930.428138720448
9,1.0
10,179.3940297802914
11,1.0
12,179.3940297802914
13,930.428138720448
14,5.461777067310058
15,7.129666126250686
16,6.327336754675798
17,0.23404300059604567
18,5.439896754518233
2,1, 1, 1, 0,14,45.00,60.00,Tuesday
7,-1.1
8,884.7856375182635
9,1.0
10,169.43349014176136
11,1.0
12,169.43349014176136
13,884.7856375182635
14,5.458117218385638
15,7.227885101488447
16,6.255627785184004
17,0.4535207748630796
18,5.417235776304001
2,1, 1, 1, 0,15, 0.00,15.00,Tuesday
7,-1.1
8,931.0170289017406
9,1.0
10,178.15692317953907
11,1.0
12,178.15692317953907
13,931.0170289017406
14,5.512731654102867
15,8.044018981099578
16,6.400639785908538
17,0.5915184422676703
18,5.404053309991453
2,1, 1, 1, 0,15,15.00,30.00,Tuesday
7,-1.1
8,874.4725948459069
9,1.0
10,166.40516310952945
11,1.0
12,166.40516310952945
13,874.4725948459069
14,5.469797185737553
15,7.680742064009707
16,6.239984019898998
17,0.5207406469976377
18,5.394826029170661
2,1, 1, 1, 0,15,30.00,45.00,Tuesday
7,-1.1
8,736.9341742162842
9,1.0
10,140.8967369711617
11,1.0
12,140.8967369711617
13,736.9341742162842
14,5.366432246176636
15,6.473500829255077
16,5.817791979575588
17,0.27075873378379358
18,5.378474730638259
2,1, 1, 1, 0,15,45.00,60.00,Tuesday
7,-1.1
8,606.1026949503242
9,1.0
10,116.57355796743004
11,1.0
12,116.57355796743004
13,606.1026949503242
14,5.257213398216164
15,5.26074567664464
16,5.373383533686479
17,0.0045530869320487
18,5.346899271674275
2,1, 1, 1, 0,16, 0.00,15.00,Tuesday
7,-1.1
8,480.7838601650707
9,1.0
10,93.14939272689483
11,1.0
12,93.14939272689483
13,480.7838601650707
14,5.1659607772041939
15,4.210446731061067
16,4.963983251088848
17,-0.18875691732910128
18,5.300007602135352
2,1, 1, 1, 0,16,15.00,30.00,Tuesday
7,-1.1
8,298.2966169069397
9,1.0
10,57.94047897402063
11,1.0
12,57.94047897402063
13,298.2966169069397
14,4.990212129264742
15,2.082813944927266
16,4.3651550358778199
17,-0.5532334698208388
18,5.231867157950891
2,1, 1, 1, 0,16,30.00,45.00,Tuesday
7,-1.1
8,231.16303769903906
9,1.0
10,45.38251793443488
11,1.0
12,45.38251793443488
13,231.16303769903906
14,4.9241039425239558
15,1.468822044519112
16,4.119366081276837
17,-0.6429586215244854
18,5.1512556334844199
2,1, 1, 1, 0,16,45.00,60.00,Tuesday
7,-1.1
8,161.3030126750013
9,1.0
10,32.02625108222755
11,1.0
12,32.02625108222755
13,161.3030126750013
14,4.822913571963621
15,0.601243643441891
16,3.880583052702036
17,-0.7463396116056629
18,5.065576668325948
2,1, 1, 1, 0,17, 0.00,15.00,Tuesday
7,-1.1
8,88.45471009835346
9,1.0
10,17.762198626050539
11,1.0
12,17.762198626050539
13,88.45471009835346
14,4.692398059350865
15,-0.6559972137022723
16,3.583362387498937
17,-0.9723039802797757
18,4.976676252120516
2,1, 1, 1, 0,17,15.00,30.00,Tuesday
7,-1.1
8,0.0
9,0.0
10,0.0
11,0.0
12,0.0
13,0.0
14,4.513370772866781
15,-2.4958649431415096
16,3.211907819171529
17,-1.2898150348102036
18,4.87653666786546
2,1, 1, 1, 0,17,30.00,45.00,Tuesday
7,-1.1
8,0.0
9,0.0
10,0.0
11,0.0
12,0.0
13,0.0
14,4.461842232276217
15,-2.634280034590673
16,3.120098158593521
17,-1.3311792751572967
18,4.7793579272719779
2,1, 1, 1, 0,17,45.00,60.00,Tuesday
7,-1.1
8,0.0
9,0.0
10,0.0
11,0.0
12,0.0
13,0.0
14,4.395924712049448
15,-2.8299150290023067
16,3.06528007631141
17,-1.3672210150277807
18,4.697828918700383
2,1, 1, 1, 0,18, 0.00,15.00,Tuesday
7,-1.25
8,0.0
9,0.0
10,0.0
11,0.0
12,0.0
13,0.0
14,4.341591049965224
15,-2.9771420297160615
16,2.978332997443829
17,-1.5103552577384108
18,4.633118658168081
2,1, 1, 1, 0,18,15.00,30.00,Tuesday
7,-1.4
8,0.0
9,0.0
10,0.0
11,0.0
12,0.0
13,0.0
14,4.292360773636434
15,-3.1295224108366765
16,2.9077364256543207
17,-1.6389774097618216
18,4.580612970226601
2,1, 1, 1, 0,18,30.00,45.00,Tuesday
7,-1.5499999999999999
8,0.0
9,0.0
10,0.0
11,0.0
12,0.0
13,0.0
14,4.247412671376905
15,-3.281356422946709
16,2.840911191127418
17,-1.767748160922963
18,4.535216651618203
2,1, 1, 1, 0,18,45.00,60.00,Tuesday
7,-1.7
8,0.0
9,0.0
10,0.0
11,0.0
12,0.0
13,0.0
14,4.204668092042911
15,-3.4333599194460566
16,2.777112608938239
17,-1.8955624178480549
18,4.493507335237381
2,1, 1, 1, 0,19, 0.00,15.00,Tuesday
7,-1.825
8,0.0
9,0.0
10,0.0
11,0.0
12,0.0
13,0.0
14,4.188374348773875
15,-3.278891407289557
16,2.731762528158015
17,-1.9646375439602367
18,4.457382331196672
2,1, 1, 1, 0,19,15.00,30.00,Tuesday
7,-1.9500000000000002
8,0.0
9,0.0
10,0.0
11,0.0
12,0.0
13,0.0
14,4.171294551605943
15,-3.2066022383343655
16,2.688740524265313
17,-2.052381836632094
18,4.428498574272921
2,1, 1, 1, 0,19,30.00,45.00,Tuesday
7,-2.075
8,0.0
9,0.0
10,0.0
11,0.0
12,0.0
13,0.0
14,4.14927982022546
15,-3.278891652075675
16,2.6473683078289698
17,-2.150967265895474
18,4.405214825663748
2,1, 1, 1, 0,19,45.00,60.00,Tuesday
7,-2.2
8,0.0
9,0.0
10,0.0
11,0.0
12,0.0
13,0.0
14,4.1304401863258859
15,-3.2518284199367395
16,2.6070681727258036
17,-2.247188797699039
18,4.384479062423866
2,1, 1, 1, 0,20, 0.00,15.00,Tuesday
7,-1.9250000000000003
8,0.0
9,0.0
10,0.0
11,0.0
12,0.0
13,0.0
14,4.128184994638104
15,-2.949443179887401
16,2.65606430215837
17,-2.031038347004369
18,4.366547549917328
2,1, 1, 1, 0,20,15.00,30.00,Tuesday
7,-1.6500000000000002
8,0.0
9,0.0
10,0.0
11,0.0
12,0.0
13,0.0
14,4.1258598889384638
15,-2.650196177581396
16,2.7058894691452908
17,-1.8025098553684985
18,4.351809262074043
2,1, 1, 1, 0,20,30.00,45.00,Tuesday
7,-1.375
8,0.0
9,0.0
10,0.0
11,0.0
12,0.0
13,0.0
14,4.125219282600179
15,-2.3522613830620435
16,2.7571767162378366
17,-1.571823597717298
18,4.339863988873163
2,1, 1, 1, 0,20,45.00,60.00,Tuesday
7,-1.1
8,0.0
9,0.0
10,0.0
11,0.0
12,0.0
13,0.0
14,4.126090940336879
15,-2.0556436900160826
16,2.810398219920444
17,-1.3392544713374264
18,4.330049272419235
2,1, 1, 1, 0,21, 0.00,15.00,Tuesday
7,-1.25
8,0.0
9,0.0
10,0.0
11,0.0
12,0.0
13,0.0
14,4.0834378593846269
15,-2.341702452036502
16,2.7617483192003648
17,-1.4628367912362137
18,4.3156910948202589
2,1, 1, 1, 0,21,15.00,30.00,Tuesday
7,-1.4
8,0.0
9,0.0
10,0.0
11,0.0
12,0.0
13,0.0
14,4.041899697502425
15,-2.560865601694884
16,2.7071899912194796
17,-1.586827461608209
18,4.2920669251939149
2,1, 1, 1, 0,21,30.00,45.00,Tuesday
7,-1.5499999999999999
8,0.0
9,0.0
10,0.0
11,0.0
12,0.0
13,0.0
14,3.9865156762858877
15,-2.9116936700555859
16,2.6472709156590215
17,-1.7202985776909828
18,4.25803135433889
2,1, 1, 1, 0,21,45.00,60.00,Tuesday
7,-1.7
8,0.0
9,0.0
10,0.0
11,0.0
12,0.0
13,0.0
14,3.9256610435906578
15,-3.3710332279585675
16,2.5726644666188465
17,-1.8741660706224366
18,4.215522493087178
2,1, 1, 1, 0,22, 0.00,15.00,Tuesday
7,-1.5499999999999999
8,0.0
9,0.0
10,0.0
11,0.0
12,0.0
13,0.0
14,3.9365218002766304
15,-2.87472161748611
16,2.5819315840931269
17,-1.7380121462898615
18,4.178482412775366
2,1, 1, 1, 0,22,15.00,30.00,Tuesday
7,-1.4
8,0.0
9,0.0
10,0.0
11,0.0
12,0.0
13,0.0
14,3.9379490615802448
15,-2.5386275701632039
16,2.608584596392859
17,-1.6062644084585714
18,4.154566594135307
2,1, 1, 1, 0,22,30.00,45.00,Tuesday
7,-1.25
8,0.0
9,0.0
10,0.0
11,0.0
12,0.0
13,0.0
14,3.9374270794307555
15,-2.3158751531516645
16,2.6343829307759849
17,-1.4820274357732615
18,4.1416508395249649
2,1, 1, 1, 0,22,45.00,60.00,Tuesday
7,-1.1
8,0.0
9,0.0
10,0.0
11,0.0
12,0.0
13,0.0
14,3.9408364239535298
15,-2.0285528668770285
16,2.666513101196813
17,-1.3452636420913678
18,4.134555860742288
2,1, 1, 1, 0,23, 0.00,15.00,Tuesday
7,-1.25
8,0.0
9,0.0
10,0.0
11,0.0
12,0.0
13,0.0
14,3.89726800585082
15,-2.3320683542275226
16,2.578139022563505
17,-1.6186301610404144
18,4.122775792496638
2,1, 1, 1, 0,23,15.00,30.00,Tuesday
7,-1.4
8,0.0
9,0.0
10,0.0
11,0.0
12,0.0
13,0.0
14,3.8570189599532589
15,-2.6365938263547679
16,2.479008016062494
17,-1.909678032082411
18,4.10092397441797
2,1, 1, 1, 0,23,30.00,45.00,Tuesday
7,-1.5499999999999999
8,0.0
9,0.0
10,0.0
11,0.0
12,0.0
13,0.0
14,3.812367818187803
15,-2.9417943793323637
16,2.378942557835842
17,-2.2008238094963419
18,4.069871412697087
2,1, 1, 1, 0,23,45.00,60.00,Tuesday
7,-1.7
8,0.0
9,0.0
10,0.0
11,0.0
12,0.0
13,0.0
14,3.763892918166731
15,-3.2473366843275519
16,2.2753268827806325
17,-2.492485200108547
18,4.032469390251964
2,1, 1, 1, 0,24, 0.00,15.00,Tuesday
7,-1.7
8,0.0
9,0.0
10,0.0
11,0.0
12,0.0
13,0.0
14,3.7329617063401838
15,-3.301214630851318
16,2.2313268266894399
17,-2.5534091919554386
18,3.9943191608222228
2,1, 1, 1, 0,24,15.00,30.00,Tuesday
7,-1.7
8,0.0
9,0.0
10,0.0
11,0.0
12,0.0
13,0.0
14,3.6989392310200999
15,-3.3558184275744056
16,2.1914623921996965
17,-2.6131351368385369
18,3.958462880465255
2,1, 1, 1, 0,24,30.00,45.00,Tuesday
7,-1.7
8,0.0
9,0.0
10,0.0
11,0.0
12,0.0
13,0.0
14,3.665841543666882
15,-3.410276612012967
16,2.1510948153453457
17,-2.67300594185258
18,3.924977147995825
2,1, 1, 1, 0,24,45.00,60.00,Tuesday
7,-1.7
8,0.0
9,0.0
10,0.0
11,0.0
12,0.0
13,0.0
14,3.633463643381277
15,-3.464737081501432
16,2.111524401525287
17,-2.7326195046802015
18,3.8929290822644324
End of Data
 Number of Records Written=        1152
