Program Version,EnergyPlus, Version 9.5.0-de239b2e5f, YMD=2022.11.08 09:47
1,5,Environment Title[],Latitude[deg],Longitude[deg],Time Zone[],Elevation[m]
2,8,Day of Simulation[],Month[],Day of Month[],DST Indicator[1=yes 0=no],Hour[],StartMinute[],EndMinute[],DayType
3,5,Cumulative Day of Simulation[],Month[],Day of Month[],DST Indicator[1=yes 0=no],DayType  ! When Daily Report Variables Requested
4,2,Cumulative Days of Simulation[],Month[]  ! When Monthly Report Variables Requested
5,1,Cumulative Days of Simulation[] ! When Run Period Report Variables Requested
6,1,Calendar Year of Simulation[] ! When Annual Report Variables Requested
7,1,Environment,Site Outdoor Air Drybulb Temperature [C] !TimeStep
8,1,ZONE ONE,Zone Windows Total Transmitted Solar Radiation Rate [W] !TimeStep
9,1,ZN001:WALL001,Surface Outside Face Sunlit Fraction [] !TimeStep
10,1,ZN001:WALL001,Surface Outside Face Incident Solar Radiation Rate per Area [W/m2] !TimeStep
11,1,ZN001:WALL001:WIN001,Surface Outside Face Sunlit Fraction [] !TimeStep
12,1,ZN001:WALL001:WIN001,Surface Outside Face Incident Solar Radiation Rate per Area [W/m2] !TimeStep
13,1,ZN001:WALL001:WIN001,Surface Window Transmitted Solar Radiation Rate [W] !TimeStep
14,1,ZN001:WALL001,Surface Inside Face Temperature [C] !TimeStep
15,1,ZN001:WALL001,Surface Outside Face Temperature [C] !TimeStep
16,1,ZN001:WALL001:WIN001,Surface Inside Face Temperature [C] !TimeStep
17,1,ZN001:WALL001:WIN001,Surface Outside Face Temperature [C] !TimeStep
18,1,ZONE ONE,Zone Mean Air Temperature [C] !TimeStep
End of Data Dictionary
1,RUN PERIOD 1,  41.98, -87.92,  -6.00, 201.00
2,1, 1, 1, 0, 1, 0.00,15.00,Tuesday
7,-4.324999999999999
8,0.0
9,0.0
10,0.0
11,0.0
12,0.0
13,0.0
14,5.596744904496568
15,-5.901993576237067
16,3.3266430527771719
17,-4.435879624039444
18,6.048954478422787
2,1, 1, 1, 0, 1,15.00,30.00,Tuesday
7,-6.949999999999999
8,0.0
9,0.0
10,0.0
11,0.0
12,0.0
13,0.0
14,5.4151782195464899
15,-8.369477498059086
16,2.7207120027682096
17,-6.523486464304369
18,5.951880253572719
2,1, 1, 1, 0, 1,30.00,45.00,Tuesday
7,-9.575
8,0.0
9,0.0
10,0.0
11,0.0
12,0.0
13,0.0
14,5.2136706383219348
15,-10.844948166831637
16,2.1090359719540858
17,-8.61749169581526
18,5.822905300131013
2,1, 1, 1, 0, 1,45.00,60.00,Tuesday
7,-12.2
8,0.0
9,0.0
10,0.0
11,0.0
12,0.0
13,0.0
14,4.996302276308341
15,-13.327035120114618
16,1.4826839463322017
17,-10.71920952226128
18,5.6717198166981979
2,1, 1, 1, 0, 2, 0.00,15.00,Tuesday
7,-12.075
8,0.0
9,0.0
10,0.0
11,0.0
12,0.0
13,0.0
14,4.92863024498808
15,-13.128071493563028
16,1.4139613388343833
17,-10.562221908761558
18,5.535386624162825
2,1, 1, 1, 0, 2,15.00,30.00,Tuesday
7,-11.95
8,0.0
9,0.0
10,0.0
11,0.0
12,0.0
13,0.0
14,4.847321067612382
15,-12.950990517959902
16,1.380724120243599
17,-10.417253359833751
18,5.4309536692799169
2,1, 1, 1, 0, 2,30.00,45.00,Tuesday
7,-11.825
8,0.0
9,0.0
10,0.0
11,0.0
12,0.0
13,0.0
14,4.7831758094633118
15,-12.77274592080612
16,1.3530817439769863
17,-10.271882291562634
18,5.353092280655245
2,1, 1, 1, 0, 2,45.00,60.00,Tuesday
7,-11.7
8,0.0
9,0.0
10,0.0
11,0.0
12,0.0
13,0.0
14,4.730233357348452
15,-12.594579460972657
16,1.3381255231136038
17,-10.123865072841
18,5.290812620288505
2,1, 1, 1, 0, 3, 0.00,15.00,Tuesday
7,-11.549999999999999
8,0.0
9,0.0
10,0.0
11,0.0
12,0.0
13,0.0
14,4.679005542977609
15,-12.468433280943323
16,1.333622110138549
17,-9.987404079962403
18,5.235233461142229
2,1, 1, 1, 0, 3,15.00,30.00,Tuesday
7,-11.399999999999999
8,0.0
9,0.0
10,0.0
11,0.0
12,0.0
13,0.0
14,4.6309052577576079
15,-12.343651356506147
16,1.3240838523331036
17,-9.831678785650923
18,5.181855347370475
2,1, 1, 1, 0, 3,30.00,45.00,Tuesday
7,-11.25
8,0.0
9,0.0
10,0.0
11,0.0
12,0.0
13,0.0
14,4.583760434129833
15,-12.22039313696433
16,1.3231196610950065
17,-9.694200906962806
18,5.129468969520738
2,1, 1, 1, 0, 3,45.00,60.00,Tuesday
7,-11.1
8,0.0
9,0.0
10,0.0
11,0.0
12,0.0
13,0.0
14,4.537022567334709
15,-12.098709303927173
16,1.3159294327438716
17,-9.538886464587222
18,5.077852089205982
2,1, 1, 1, 0, 4, 0.00,15.00,Tuesday
7,-11.1
8,0.0
9,0.0
10,0.0
11,0.0
12,0.0
13,0.0
14,4.486622362059478
15,-12.070394303043305
16,1.2636885342980123
17,-9.574651267225932
18,5.0261667926103918
2,1, 1, 1, 0, 4,15.00,30.00,Tuesday
7,-11.1
8,0.0
9,0.0
10,0.0
11,0.0
12,0.0
13,0.0
14,4.436600666261617
15,-12.04316929641421
16,1.2145165106475702
17,-9.60958877368978
18,4.9740765833054489
2,1, 1, 1, 0, 4,30.00,45.00,Tuesday
7,-11.1
8,0.0
9,0.0
10,0.0
11,0.0
12,0.0
13,0.0
14,4.3864086408104019
15,-12.017472922548546
16,1.1657122242686456
17,-9.643604289527275
18,4.9216902297400859
2,1, 1, 1, 0, 4,45.00,60.00,Tuesday
7,-11.1
8,0.0
9,0.0
10,0.0
11,0.0
12,0.0
13,0.0
14,4.336146918148578
15,-11.993174574078484
16,1.1171015878541085
17,-9.676618097682308
18,4.869215676201631
2,1, 1, 1, 0, 5, 0.00,15.00,Tuesday
7,-10.975
8,0.0
9,0.0
10,0.0
11,0.0
12,0.0
13,0.0
14,4.291515773984316
15,-11.87120653535013
16,1.1050502026523078
17,-9.59021805898152
18,4.81785177358359
2,1, 1, 1, 0, 5,15.00,30.00,Tuesday
7,-10.85
8,0.0
9,0.0
10,0.0
11,0.0
12,0.0
13,0.0
14,4.247098307691366
15,-11.749310480945424
16,1.0908894187396073
17,-9.495804662952765
18,4.768083134919959
2,1, 1, 1, 0, 5,30.00,45.00,Tuesday
7,-10.725
8,0.0
9,0.0
10,0.0
11,0.0
12,0.0
13,0.0
14,4.203702855296592
15,-11.627392019466767
16,1.0770095725031866
17,-9.400545342897886
18,4.719685129592621
2,1, 1, 1, 0, 5,45.00,60.00,Tuesday
7,-10.6
8,0.0
9,0.0
10,0.0
11,0.0
12,0.0
13,0.0
14,4.161159762542839
15,-11.50548307523782
16,1.0639273390045788
17,-9.305050813540788
18,4.67228231235317
2,1, 1, 1, 0, 6, 0.00,15.00,Tuesday
7,-10.6
8,0.0
9,0.0
10,0.0
11,0.0
12,0.0
13,0.0
14,4.111612764143672
15,-11.506455214094391
16,1.02184320676065
17,-9.3061495166869
18,4.624274910199631
2,1, 1, 1, 0, 6,15.00,30.00,Tuesday
7,-10.6
8,0.0
9,0.0
10,0.0
11,0.0
12,0.0
13,0.0
14,4.062698462856455
15,-11.507371024036175
16,0.9807922979613295
17,-9.313927213760963
18,4.574951403858351
2,1, 1, 1, 0, 6,30.00,45.00,Tuesday
7,-10.6
8,0.0
9,0.0
10,0.0
11,0.0
12,0.0
13,0.0
14,4.013248383892423
15,-11.50832897031336
16,0.9399265293631629
17,-9.322294255286181
18,4.524589294022266
2,1, 1, 1, 0, 6,45.00,60.00,Tuesday
7,-10.6
8,0.0
9,0.0
10,0.0
11,0.0
12,0.0
13,0.0
14,3.9634849574218187
15,-11.509284996166786
16,0.8986984400611959
17,-9.330809379303333
18,4.473702219454209
2,1, 1, 1, 0, 7, 0.00,15.00,Tuesday
7,-10.6
8,0.0
9,0.0
10,0.0
11,0.0
12,0.0
13,0.0
14,3.9157156230200624
15,-11.485886125887309
16,0.851272855455818
17,-9.358786728094913
18,4.42296152942432
2,1, 1, 1, 0, 7,15.00,30.00,Tuesday
7,-10.6
8,0.0
9,0.0
10,0.0
11,0.0
12,0.0
13,0.0
14,3.8678248461209359
15,-11.463700452048629
16,0.8056865172063112
17,-9.386931514149979
18,4.3727156173713379
2,1, 1, 1, 0, 7,30.00,45.00,Tuesday
7,-10.6
8,0.0
9,0.0
10,0.0
11,0.0
12,0.0
13,0.0
14,3.820225073900401
15,-11.442643255899699
16,0.7605298653685395
17,-9.41432680569551
18,4.322947918721011
2,1, 1, 1, 0, 7,45.00,60.00,Tuesday
7,-10.6
8,0.0
9,0.0
10,0.0
11,0.0
12,0.0
13,0.0
14,3.772924094923524
15,-11.422647650730506
16,0.7158597151626509
17,-9.440838886245388
18,4.27354497667968
2,1, 1, 1, 0, 8, 0.00,15.00,Tuesday
7,-10.45
8,0.0
9,0.0
10,0.0
11,0.0
12,0.0
13,0.0
14,3.725024289532839
15,-11.373548226411037
16,0.6953206826095766
17,-9.390213037597392
18,4.2241742399494719
2,1, 1, 1, 0, 8,15.00,30.00,Tuesday
7,-10.3
8,154.6766737682746
9,1.0
10,22.819555959623899
11,1.0
12,22.819555959623899
13,154.6766737682746
14,3.7970890007198978
15,-9.699973511267134
16,1.0003611633714514
17,-9.058866012278429
18,4.192830606471959
2,1, 1, 1, 0, 8,30.00,45.00,Tuesday
7,-10.15
8,759.464018586987
9,1.0
10,109.75755355442667
11,1.0
12,109.75755355442667
13,759.464018586987
14,4.196448990591937
15,-3.3302573508001656
16,2.2964594307034646
17,-7.925929174348539
18,4.229665380131911
2,1, 1, 1, 0, 8,45.00,60.00,Tuesday
7,-10.0
8,1381.003786922009
9,1.0
10,195.8764694434918
11,1.0
12,195.8764694434918
13,1381.003786922009
14,4.707088554880768
15,3.155497021678019
16,3.7328262899704898
17,-6.78151557938088
18,4.341736703056243
2,1, 1, 1, 0, 9, 0.00,15.00,Tuesday
7,-9.725
8,2000.4027330906338
9,1.0
10,278.97248314719988
11,1.0
12,278.97248314719988
13,2000.4027330906338
14,5.123069974594982
15,8.32978321867358
16,5.220587574977515
17,-5.757362855939107
18,4.506872124716177
2,1, 1, 1, 0, 9,15.00,30.00,Tuesday
7,-9.45
8,2653.3202014145028
9,1.0
10,364.91995730569456
11,1.0
12,364.91995730569456
13,2653.3202014145028
14,5.560989885722291
15,13.4080994906268
16,6.655424802367577
17,-4.7292266219862999
18,4.716907992859094
2,1, 1, 1, 0, 9,30.00,45.00,Tuesday
7,-9.175
8,3085.287917603463
9,1.0
10,420.35879993239237
11,1.0
12,420.35879993239237
13,3085.287917603463
14,5.87108336998582
15,16.16571543894623
16,7.621397550893221
17,-4.093823344391353
18,4.951894752464035
2,1, 1, 1, 0, 9,45.00,60.00,Tuesday
7,-8.9
8,3533.7057043660508
9,1.0
10,478.00138373643099
11,1.0
12,478.00138373643099
13,3533.7057043660508
14,6.234524362323063
15,19.160475813551778
16,8.582303217999652
17,-3.436725604521939
18,5.201253579640302
2,1, 1, 1, 0,10, 0.00,15.00,Tuesday
7,-8.350000000000002
8,3991.5972941510678
9,1.0
10,536.9185644770597
11,1.0
12,536.9185644770597
13,3991.5972941510678
14,6.5445752479862959
15,20.27711550213557
16,9.57325113510558
17,-2.739791047457288
18,5.4649665631914809
2,1, 1, 1, 0,10,15.00,30.00,Tuesday
7,-7.800000000000001
8,4465.307663111607
9,1.0
10,598.0969199229219
11,1.0
12,598.0969199229219
13,4465.307663111607
14,6.883290813339867
15,21.52940534579423
16,10.58024313065107
17,-2.0450754824800585
18,5.749423204883865
2,1, 1, 1, 0,10,30.00,45.00,Tuesday
7,-7.25
8,4776.067163205069
9,1.0
10,637.6133352894237
11,1.0
12,637.6133352894237
13,4776.067163205069
14,7.146164032705266
15,21.588463090732025
16,11.309962481432763
17,-1.5557308113153568
18,6.0472837415605
2,1, 1, 1, 0,10,45.00,60.00,Tuesday
7,-6.7
8,5082.249340920836
9,1.0
10,676.6412284283772
11,1.0
12,676.6412284283772
13,5082.249340920836
14,7.434397992332989
15,21.748204222350315
16,12.013761476986702
17,-1.0694657197799416
18,6.346737878409575
2,1, 1, 1, 0,11, 0.00,15.00,Tuesday
7,-6.275
8,5382.861284171963
9,1.0
10,715.0112779846514
11,1.0
12,715.0112779846514
13,5382.861284171963
14,7.800007177728326
15,23.846225493182538
16,12.75912351029956
17,-0.3590166603955822
18,6.464672146762178
2,1, 1, 1, 0,11,15.00,30.00,Tuesday
7,-5.85
8,5676.3971953442319
9,1.0
10,752.5077794605232
11,1.0
12,752.5077794605232
13,5676.3971953442319
14,8.107035346979809
15,25.780225696880625
16,13.471658110378428
17,0.3278930431557683
18,6.707042191462663
2,1, 1, 1, 0,11,30.00,45.00,Tuesday
7,-5.425
8,5589.158788441964
9,1.0
10,742.5988714321785
11,1.0
12,742.5988714321785
13,5589.158788441964
14,8.249791093677484
15,25.631321271797707
16,13.58271459740115
17,0.614345886961928
18,6.880517303595044
2,1, 1, 1, 0,11,45.00,60.00,Tuesday
7,-5.0
8,5464.505279106943
9,1.0
10,727.8169025450712
11,1.0
12,727.8169025450712
13,5464.505279106943
14,8.459177519367613
15,25.40370068645017
16,13.638652659320542
17,0.8746966028114684
18,7.154808027786555
2,1, 1, 1, 0,12, 0.00,15.00,Tuesday
7,-4.575
8,5250.139011854735
9,1.0
10,700.3759009170325
11,1.0
12,700.3759009170325
13,5250.139011854735
14,8.560937010939063
15,24.66013660258175
16,13.540198487988505
17,1.0770234161631152
18,7.2954610644036859
2,1, 1, 1, 0,12,15.00,30.00,Tuesday
7,-4.15
8,5091.158693258943
9,1.0
10,681.6705029034473
11,1.0
12,681.6705029034473
13,5091.158693258943
14,8.73838099412855
15,24.33101176623175
16,13.53646947898062
17,1.3482086645254868
18,7.523884543099552
2,1, 1, 1, 0,12,30.00,45.00,Tuesday
7,-3.7249999999999998
8,4469.613315121174
9,1.0
10,602.01865277251
11,1.0
12,602.01865277251
13,4469.613315121174
14,8.633545655367647
15,21.302085240934756
16,12.788187168799539
17,1.1408746889733266
18,7.770471529755506
2,1, 1, 1, 0,12,45.00,60.00,Tuesday
7,-3.3
8,3650.389339434253
9,1.0
10,493.55004396206007
11,1.0
12,493.55004396206007
13,3650.389339434253
14,8.49324479559252
15,17.125947577359228
16,11.621505194574866
17,0.6893459951501768
18,7.940173537441073
2,1, 1, 1, 0,13, 0.00,15.00,Tuesday
7,-3.0249999999999996
8,3014.1126501809119
9,1.0
10,412.335026418112
11,1.0
12,412.335026418112
13,3014.1126501809119
14,8.398313609445065
15,14.282303827386379
16,10.709479350915672
17,0.3857663100417881
18,8.02164598613391
2,1, 1, 1, 0,13,15.00,30.00,Tuesday
7,-2.75
8,2207.5599913146418
9,1.0
10,305.94037763660148
11,1.0
12,305.94037763660148
13,2207.5599913146418
14,8.123567676642386
15,10.109776126179336
16,9.419974488892536
17,-0.14420954235498585
18,8.024199233800913
2,1, 1, 1, 0,13,30.00,45.00,Tuesday
7,-2.475
8,2015.424127399136
9,1.0
10,281.0763483922329
11,1.0
12,281.0763483922329
13,2015.424127399136
14,8.11145128953831
15,9.597777728520015
16,9.120332091386672
17,-0.02363732658244544
18,7.995468883150487
2,1, 1, 1, 0,13,45.00,60.00,Tuesday
7,-2.2
8,1827.2907190822853
9,1.0
10,256.7721209415886
11,1.0
12,256.7721209415886
13,1827.2907190822853
14,8.0804311246271
15,8.990540599460106
16,8.884915243151966
17,0.12014241963402128
18,7.966797700885498
2,1, 1, 1, 0,14, 0.00,15.00,Tuesday
7,-1.9250000000000003
8,1492.7106735241969
9,1.0
10,210.73276284570657
11,1.0
12,210.73276284570657
13,1492.7106735241969
14,7.946337424337096
15,7.443583519028022
16,8.321590517786263
17,0.04477068750145463
18,7.938192259664612
2,1, 1, 1, 0,14,15.00,30.00,Tuesday
7,-1.6500000000000002
8,1326.0089176324935
9,1.0
10,189.38488290342594
11,1.0
12,189.38488290342594
13,1326.0089176324935
14,7.913047427223782
15,7.03713375799014
16,8.05572098164805
17,0.16376365129497118
18,7.911730693438542
2,1, 1, 1, 0,14,30.00,45.00,Tuesday
7,-1.375
8,1264.6372426763033
9,1.0
10,179.3940297802914
11,1.0
12,179.3940297802914
13,1264.6372426763033
14,7.9076108401953208
15,7.161566759691741
16,8.000441624159749
17,0.39750177080748019
18,7.889703131115632
2,1, 1, 1, 0,14,45.00,60.00,Tuesday
7,-1.1
8,1202.5644299876224
9,1.0
10,169.43349014176136
11,1.0
12,169.43349014176136
13,1202.5644299876224
14,7.898165979315957
15,7.260912699776234
16,7.937987571613803
17,0.6292873185153098
18,7.8719193496115429
2,1, 1, 1, 0,15, 0.00,15.00,Tuesday
7,-1.1
8,1265.774507345548
9,1.0
10,178.15692317953907
11,1.0
12,178.15692317953907
13,1265.774507345548
14,7.960060596044468
15,8.078938586717717
16,8.082478992611641
17,0.7653521158016474
18,7.861764530615145
2,1, 1, 1, 0,15,15.00,30.00,Tuesday
7,-1.1
8,1189.1603867533432
9,1.0
10,166.40516310952945
11,1.0
12,166.40516310952945
13,1189.1603867533432
14,7.909948369808459
15,7.715986947460214
16,7.93294883504052
17,0.7083921382242124
18,7.854174679654446
2,1, 1, 1, 0,15,30.00,45.00,Tuesday
7,-1.1
8,1002.6786716499106
9,1.0
10,140.8967369711617
11,1.0
12,140.8967369711617
13,1002.6786716499106
14,7.793152000188574
15,6.509405657771429
16,7.518865764810471
17,0.4769127868235046
18,7.839654555459033
2,1, 1, 1, 0,15,45.00,60.00,Tuesday
7,-1.1
8,825.1228302217692
9,1.0
10,116.57355796743004
11,1.0
12,116.57355796743004
13,825.1228302217692
14,7.679292018592359
15,5.301328936142456
16,7.121652432769224
17,0.24952547222250133
18,7.807106511246541
2,1, 1, 1, 0,16, 0.00,15.00,Tuesday
7,-1.1
8,654.8645552800214
9,1.0
10,93.14939272689483
11,1.0
12,93.14939272689483
13,654.8645552800214
14,7.5785124845389089
15,4.251510039424591
16,6.770622083241335
17,0.09664381825598412
18,7.754562177049145
2,1, 1, 1, 0,16,15.00,30.00,Tuesday
7,-1.1
8,406.54110252052046
9,1.0
10,57.94047897402063
11,1.0
12,57.94047897402063
13,406.54110252052046
14,7.386874120146637
15,2.1275933325168117
16,6.238452397388528
17,-0.20674556736560135
18,7.6750545054487209
2,1, 1, 1, 0,16,30.00,45.00,Tuesday
7,-1.1
8,315.202153460344
9,1.0
10,45.38251793443488
11,1.0
12,45.38251793443488
13,315.202153460344
14,7.311600414772431
15,1.517455029948834
16,6.0089693135330439
17,-0.26563294978944898
18,7.581138656741859
2,1, 1, 1, 0,16,45.00,60.00,Tuesday
7,-1.1
8,220.03198535711526
9,1.0
10,32.02625108222755
11,1.0
12,32.02625108222755
13,220.03198535711526
14,7.197154748267254
15,0.6546002721509676
16,5.791254146420329
17,-0.3292205541471276
18,7.487071880725779
2,1, 1, 1, 0,17, 0.00,15.00,Tuesday
7,-1.1
8,120.6872357914917
9,1.0
10,17.762198626050539
11,1.0
12,17.762198626050539
13,120.6872357914917
14,7.057582810370668
15,-0.5959822263278736
16,5.518017876523231
17,-0.5059758488977195
18,7.393373262760609
2,1, 1, 1, 0,17,15.00,30.00,Tuesday
7,-1.1
8,0.0
9,0.0
10,0.0
11,0.0
12,0.0
13,0.0
14,6.868614592127136
15,-2.432916700709025
16,5.173045558564013
17,-0.7893166889679151
18,7.288562740184732
2,1, 1, 1, 0,17,30.00,45.00,Tuesday
7,-1.1
8,0.0
9,0.0
10,0.0
11,0.0
12,0.0
13,0.0
14,6.812180278695092
15,-2.568465604888532
16,5.085106543965821
17,-0.7895487274429911
18,7.186704663266916
2,1, 1, 1, 0,17,45.00,60.00,Tuesday
7,-1.1
8,0.0
9,0.0
10,0.0
11,0.0
12,0.0
13,0.0
14,6.740402046058807
15,-2.7588597709034925
16,5.038098236891926
17,-0.7734382325231763
18,7.101023604179551
2,1, 1, 1, 0,18, 0.00,15.00,Tuesday
7,-1.25
8,0.0
9,0.0
10,0.0
11,0.0
12,0.0
13,0.0
14,6.6800975829103319
15,-2.9067718484365807
16,4.9487770604059169
17,-0.9126754907853183
18,7.03226260192984
2,1, 1, 1, 0,18,15.00,30.00,Tuesday
7,-1.4
8,0.0
9,0.0
10,0.0
11,0.0
12,0.0
13,0.0
14,6.625073836039199
15,-3.059192350865788
16,4.87335251783702
17,-1.0434759333377884
18,6.975293155390826
2,1, 1, 1, 0,18,30.00,45.00,Tuesday
7,-1.5499999999999999
8,0.0
9,0.0
10,0.0
11,0.0
12,0.0
13,0.0
14,6.574271844508018
15,-3.211156410785802
16,4.802261223484834
17,-1.1734354897134268
18,6.924815973087456
2,1, 1, 1, 0,18,45.00,60.00,Tuesday
7,-1.7
8,0.0
9,0.0
10,0.0
11,0.0
12,0.0
13,0.0
14,6.52550537019455
15,-3.3632891680316305
16,4.734049174193842
17,-1.3026739474183842
18,6.877468599750079
2,1, 1, 1, 0,19, 0.00,15.00,Tuesday
7,-1.825
8,0.0
9,0.0
10,0.0
11,0.0
12,0.0
13,0.0
14,6.5016585856451869
15,-3.2169194828257359
16,4.661685841244662
17,-1.4455940474870204
18,6.835077652881294
2,1, 1, 1, 0,19,15.00,30.00,Tuesday
7,-1.9500000000000002
8,0.0
9,0.0
10,0.0
11,0.0
12,0.0
13,0.0
14,6.476729711620219
15,-3.1517693301141436
16,4.601428697859944
17,-1.581833088415351
18,6.799414972314928
2,1, 1, 1, 0,19,30.00,45.00,Tuesday
7,-2.075
8,0.0
9,0.0
10,0.0
11,0.0
12,0.0
13,0.0
14,6.447329548582347
15,-3.2260105886944769
16,4.552482485625546
17,-1.694745336738606
18,6.76904608387978
2,1, 1, 1, 0,19,45.00,60.00,Tuesday
7,-2.2
8,0.0
9,0.0
10,0.0
11,0.0
12,0.0
13,0.0
14,6.420844265910898
15,-3.205228381709563
16,4.496628162147829
17,-1.8272883618609513
18,6.740930130862572
2,1, 1, 1, 0,20, 0.00,15.00,Tuesday
7,-1.9250000000000003
8,0.0
9,0.0
10,0.0
11,0.0
12,0.0
13,0.0
14,6.410142331602267
15,-2.9044144658162
16,4.5375839285137549
17,-1.6198109822850029
18,6.7155055067645359
2,1, 1, 1, 0,20,15.00,30.00,Tuesday
7,-1.6500000000000002
8,0.0
9,0.0
10,0.0
11,0.0
12,0.0
13,0.0
14,6.3999457109712909
15,-2.606554478639851
16,4.5774683201703969
17,-1.4007430720613457
18,6.693295889191435
2,1, 1, 1, 0,20,30.00,45.00,Tuesday
7,-1.375
8,0.0
9,0.0
10,0.0
11,0.0
12,0.0
13,0.0
14,6.392496131950933
15,-2.3099647969519374
16,4.618828659487576
17,-1.180024387602998
18,6.674043300144606
2,1, 1, 1, 0,20,45.00,60.00,Tuesday
7,-1.1
8,0.0
9,0.0
10,0.0
11,0.0
12,0.0
13,0.0
14,6.385598535899108
15,-2.0146625533232656
16,4.662481286234311
17,-0.9573861447562422
18,6.65701632772415
2,1, 1, 1, 0,21, 0.00,15.00,Tuesday
7,-1.25
8,0.0
9,0.0
10,0.0
11,0.0
12,0.0
13,0.0
14,6.336968970176412
15,-2.2942829852848378
16,4.620428745296408
17,-1.0444127332961558
18,6.635333405014941
2,1, 1, 1, 0,21,15.00,30.00,Tuesday
7,-1.4
8,0.0
9,0.0
10,0.0
11,0.0
12,0.0
13,0.0
14,6.289991690844844
15,-2.510015689695362
16,4.565749388934364
17,-1.1484117599237039
18,6.60433265400468
2,1, 1, 1, 0,21,30.00,45.00,Tuesday
7,-1.5499999999999999
8,0.0
9,0.0
10,0.0
11,0.0
12,0.0
13,0.0
14,6.22959050774812
15,-2.852354045700645
16,4.5145520773290859
17,-1.2326968162387289
18,6.563219604273801
2,1, 1, 1, 0,21,45.00,60.00,Tuesday
7,-1.7
8,0.0
9,0.0
10,0.0
11,0.0
12,0.0
13,0.0
14,6.163907827124878
15,-3.301980399280935
16,4.463862207183979
17,-1.2918997867637928
18,6.514268145449204
2,1, 1, 1, 0,22, 0.00,15.00,Tuesday
7,-1.5499999999999999
8,0.0
9,0.0
10,0.0
11,0.0
12,0.0
13,0.0
14,6.166303597709398
15,-2.817137289017452
16,4.436250888145025
17,-1.2481536449153055
18,6.4709928622957169
2,1, 1, 1, 0,22,15.00,30.00,Tuesday
7,-1.4
8,0.0
9,0.0
10,0.0
11,0.0
12,0.0
13,0.0
14,6.1587957505849719
15,-2.4888480101274599
16,4.44280422057227
17,-1.1693050555510354
18,6.4406767075161979
2,1, 1, 1, 0,22,30.00,45.00,Tuesday
7,-1.25
8,0.0
9,0.0
10,0.0
11,0.0
12,0.0
13,0.0
14,6.150212087568603
15,-2.269578133408111
16,4.45702320882674
17,-1.06799023937549
18,6.421040389415499
2,1, 1, 1, 0,22,45.00,60.00,Tuesday
7,-1.1
8,0.0
9,0.0
10,0.0
11,0.0
12,0.0
13,0.0
14,6.145605942866898
15,-1.9885355975144533
16,4.471639151891111
17,-0.969573240172565
18,6.406820491630373
2,1, 1, 1, 0,23, 0.00,15.00,Tuesday
7,-1.25
8,0.0
9,0.0
10,0.0
11,0.0
12,0.0
13,0.0
14,6.096490017204001
15,-2.2918928467517878
16,4.380880195444206
17,-1.2448615138084734
18,6.387468076440906
2,1, 1, 1, 0,23,15.00,30.00,Tuesday
7,-1.4
8,0.0
9,0.0
10,0.0
11,0.0
12,0.0
13,0.0
14,6.050385340225612
15,-2.596494546385922
16,4.278066465271195
17,-1.5378521694974552
18,6.357867242410107
2,1, 1, 1, 0,23,30.00,45.00,Tuesday
7,-1.5499999999999999
8,0.0
9,0.0
10,0.0
11,0.0
12,0.0
13,0.0
14,5.999550519895767
15,-2.901770604896574
16,4.173357495761877
17,-1.8333956167111865
18,6.31920326643875
2,1, 1, 1, 0,23,45.00,60.00,Tuesday
7,-1.7
8,0.0
9,0.0
10,0.0
11,0.0
12,0.0
13,0.0
14,5.944830587516724
15,-3.2073877490280657
16,4.06551371705558
17,-2.1270860231935559
18,6.274495824269095
2,1, 1, 1, 0,24, 0.00,15.00,Tuesday
7,-1.7
8,0.0
9,0.0
10,0.0
11,0.0
12,0.0
13,0.0
14,5.906197082779684
15,-3.261454820621343
16,4.015772625075954
17,-2.1903555720460305
18,6.229331577494862
2,1, 1, 1, 0,24,15.00,30.00,Tuesday
7,-1.7
8,0.0
9,0.0
10,0.0
11,0.0
12,0.0
13,0.0
14,5.865436993386801
15,-3.3161358341345639
16,3.9700407743475809
17,-2.2518220386090208
18,6.186681081507067
2,1, 1, 1, 0,24,30.00,45.00,Tuesday
7,-1.7
8,0.0
9,0.0
10,0.0
11,0.0
12,0.0
13,0.0
14,5.8257376352676959
15,-3.370709033832263
16,3.9241413454657279
17,-2.313276336036438
18,6.146530244767022
2,1, 1, 1, 0,24,45.00,60.00,Tuesday
7,-1.7
8,0.0
9,0.0
10,0.0
11,0.0
12,0.0
13,0.0
14,5.786840488674903
15,-3.4252847585524228
16,3.8791413740266309
17,-2.374432406544429
18,6.107866257028116
End of Data
 Number of Records Written=        1152
