Program Version,EnergyPlus, Version 9.5.0-de239b2e5f, YMD=2022.11.08 09:46
1,5,Environment Title[],Latitude[deg],Longitude[deg],Time Zone[],Elevation[m]
2,8,Day of Simulation[],Month[],Day of Month[],DST Indicator[1=yes 0=no],Hour[],StartMinute[],EndMinute[],DayType
3,5,Cumulative Day of Simulation[],Month[],Day of Month[],DST Indicator[1=yes 0=no],DayType  ! When Daily Report Variables Requested
4,2,Cumulative Days of Simulation[],Month[]  ! When Monthly Report Variables Requested
5,1,Cumulative Days of Simulation[] ! When Run Period Report Variables Requested
6,1,Calendar Year of Simulation[] ! When Annual Report Variables Requested
7,1,Environment,Site Outdoor Air Drybulb Temperature [C] !TimeStep
8,1,ZONE ONE,Zone Windows Total Transmitted Solar Radiation Rate [W] !TimeStep
9,1,ZN001:WALL001,Surface Outside Face Sunlit Fraction [] !TimeStep
10,1,ZN001:WALL001,Surface Outside Face Incident Solar Radiation Rate per Area [W/m2] !TimeStep
11,1,ZN001:WALL001:WIN001,Surface Outside Face Sunlit Fraction [] !TimeStep
12,1,ZN001:WALL001:WIN001,Surface Outside Face Incident Solar Radiation Rate per Area [W/m2] !TimeStep
13,1,ZN001:WALL001:WIN001,Surface Window Transmitted Solar Radiation Rate [W] !TimeStep
14,1,ZN001:WALL001,Surface Inside Face Temperature [C] !TimeStep
15,1,ZN001:WALL001,Surface Outside Face Temperature [C] !TimeStep
16,1,ZN001:WALL001:WIN001,Surface Inside Face Temperature [C] !TimeStep
17,1,ZN001:WALL001:WIN001,Surface Outside Face Temperature [C] !TimeStep
18,1,ZONE ONE,Zone Mean Air Temperature [C] !TimeStep
End of Data Dictionary
1,RUN PERIOD 1,  41.98, -87.92,  -6.00, 201.00
2,1, 1, 1, 0, 1, 0.00,15.00,Tuesday
7,-4.324999999999999
8,0.0
9,0.0
10,0.0
11,0.0
12,0.0
13,0.0
14,3.826387004458765
15,-5.934252638207985
16,1.8662124900095024
17,-4.73539722549333
18,4.23353142334411
2,1, 1, 1, 0, 1,15.00,30.00,Tuesday
7,-6.949999999999999
8,0.0
9,0.0
10,0.0
11,0.0
12,0.0
13,0.0
14,3.647804275165491
15,-8.40197186035565
16,1.2554939947797835
17,-6.823088771553898
18,4.1421183770176699
2,1, 1, 1, 0, 1,30.00,45.00,Tuesday
7,-9.575
8,0.0
9,0.0
10,0.0
11,0.0
12,0.0
13,0.0
14,3.4493190138568114
15,-10.877816620761636
16,0.6404963992478088
17,-8.917336421871824
18,4.018299874920161
2,1, 1, 1, 0, 1,45.00,60.00,Tuesday
7,-12.2
8,0.0
9,0.0
10,0.0
11,0.0
12,0.0
13,0.0
14,3.23500825275818
15,-13.360250184580553
16,0.011277441514721432
17,-11.019501123199348
18,3.871635061118631
2,1, 1, 1, 0, 2, 0.00,15.00,Tuesday
7,-12.075
8,0.0
9,0.0
10,0.0
11,0.0
12,0.0
13,0.0
14,3.1728692698196068
15,-13.161547987398448
16,-0.053890169346800579
17,-10.866561497510248
18,3.7392174837257325
2,1, 1, 1, 0, 2,15.00,30.00,Tuesday
7,-11.95
8,0.0
9,0.0
10,0.0
11,0.0
12,0.0
13,0.0
14,3.096618038512394
15,-12.984360000326975
16,-0.08195416315362536
17,-10.720256284675429
18,3.6385203680829356
2,1, 1, 1, 0, 2,30.00,45.00,Tuesday
7,-11.825
8,0.0
9,0.0
10,0.0
11,0.0
12,0.0
13,0.0
14,3.037437395037824
15,-12.805993043912176
16,-0.10470507907962201
17,-10.573569232724822
18,3.5646672008679287
2,1, 1, 1, 0, 2,45.00,60.00,Tuesday
7,-11.7
8,0.0
9,0.0
10,0.0
11,0.0
12,0.0
13,0.0
14,2.9895529114497179
15,-12.627695794207077
16,-0.11479700809206861
17,-10.424226023307824
18,3.506853692195334
2,1, 1, 1, 0, 3, 0.00,15.00,Tuesday
7,-11.549999999999999
8,0.0
9,0.0
10,0.0
11,0.0
12,0.0
13,0.0
14,2.943385454322037
15,-12.50234161871724
16,-0.11577650327757283
17,-10.291073156756966
18,3.4561301633122065
2,1, 1, 1, 0, 3,15.00,30.00,Tuesday
7,-11.399999999999999
8,0.0
9,0.0
10,0.0
11,0.0
12,0.0
13,0.0
14,2.9004846716955527
15,-12.378385575726977
16,-0.12152146280516263
17,-10.139594894958407
18,3.407853105349889
2,1, 1, 1, 0, 3,30.00,45.00,Tuesday
7,-11.25
8,0.0
9,0.0
10,0.0
11,0.0
12,0.0
13,0.0
14,2.858613145631059
15,-12.255994881561979
16,-0.11877479492898147
17,-10.005610535537187
18,3.360685595635578
2,1, 1, 1, 0, 3,45.00,60.00,Tuesday
7,-11.1
8,0.0
9,0.0
10,0.0
11,0.0
12,0.0
13,0.0
14,2.817231247515349
15,-12.135222320734501
16,-0.11822525647352222
17,-9.863660258251457
18,3.3144019207942296
2,1, 1, 1, 0, 4, 0.00,15.00,Tuesday
7,-11.1
8,0.0
9,0.0
10,0.0
11,0.0
12,0.0
13,0.0
14,2.772194598961799
15,-12.105756957043372
16,-0.16773892596239649
17,-9.885105133890989
18,3.2680933874062276
2,1, 1, 1, 0, 4,15.00,30.00,Tuesday
7,-11.1
8,0.0
9,0.0
10,0.0
11,0.0
12,0.0
13,0.0
14,2.7275662221160914
15,-12.077431889224858
16,-0.21158496872305933
17,-9.913574165610556
18,3.2214114502085016
2,1, 1, 1, 0, 4,30.00,45.00,Tuesday
7,-11.1
8,0.0
9,0.0
10,0.0
11,0.0
12,0.0
13,0.0
14,2.6827715730497267
15,-12.05068908719464
16,-0.25468618294456749
17,-9.941879979121837
18,3.1744613809071597
2,1, 1, 1, 0, 4,45.00,60.00,Tuesday
7,-11.1
8,0.0
9,0.0
10,0.0
11,0.0
12,0.0
13,0.0
14,2.637906956457246
15,-12.025396033242322
16,-0.2975829481088681
17,-9.969377075020362
18,3.127439171940133
2,1, 1, 1, 0, 5, 0.00,15.00,Tuesday
7,-10.975
8,0.0
9,0.0
10,0.0
11,0.0
12,0.0
13,0.0
14,2.5987027044591999
15,-11.903298236903212
16,-0.30483505794120449
17,-9.881915031760173
18,3.0814974870345477
2,1, 1, 1, 0, 5,15.00,30.00,Tuesday
7,-10.85
8,0.0
9,0.0
10,0.0
11,0.0
12,0.0
13,0.0
14,2.5596979960186259
15,-11.781283490190364
16,-0.31404004041303326
17,-9.786545753644362
18,3.0371129972026065
2,1, 1, 1, 0, 5,30.00,45.00,Tuesday
7,-10.725
8,0.0
9,0.0
10,0.0
11,0.0
12,0.0
13,0.0
14,2.5216821025606035
15,-11.65924724792865
16,-0.32297969044071808
17,-9.690337093686026
18,2.9940759860107719
2,1, 1, 1, 0, 5,45.00,60.00,Tuesday
7,-10.6
8,0.0
9,0.0
10,0.0
11,0.0
12,0.0
13,0.0
14,2.4844967556662476
15,-11.537220731574037
16,-0.3311478212140173
17,-9.59389795863251
18,2.9520232946379529
2,1, 1, 1, 0, 6, 0.00,15.00,Tuesday
7,-10.6
8,0.0
9,0.0
10,0.0
11,0.0
12,0.0
13,0.0
14,2.44019010210962
15,-11.538107691813372
16,-0.36578190324848949
17,-9.597104612876308
18,2.9094673708045666
2,1, 1, 1, 0, 6,15.00,30.00,Tuesday
7,-10.6
8,0.0
9,0.0
10,0.0
11,0.0
12,0.0
13,0.0
14,2.396469222130357
15,-11.53892232143228
16,-0.4050003912136617
17,-9.601187599021273
18,2.865522347519159
2,1, 1, 1, 0, 6,30.00,45.00,Tuesday
7,-10.6
8,0.0
9,0.0
10,0.0
11,0.0
12,0.0
13,0.0
14,2.3522171567455825
15,-11.539783463392986
16,-0.44154930849788345
17,-9.608341697924744
18,2.820454568026769
2,1, 1, 1, 0, 6,45.00,60.00,Tuesday
7,-10.6
8,0.0
9,0.0
10,0.0
11,0.0
12,0.0
13,0.0
14,2.3076083201946755
15,-11.540642992993222
16,-0.4783221375433868
17,-9.615955741965422
18,2.774812846697064
2,1, 1, 1, 0, 7, 0.00,15.00,Tuesday
7,-10.6
8,0.0
9,0.0
10,0.0
11,0.0
12,0.0
13,0.0
14,2.2650728943228679
15,-11.516324731731107
16,-0.5200862086693405
17,-9.638920498226469
18,2.729312929463989
2,1, 1, 1, 0, 7,15.00,30.00,Tuesday
7,-10.6
8,0.0
9,0.0
10,0.0
11,0.0
12,0.0
13,0.0
14,2.2223957664994886
15,-11.493266928035297
16,-0.5601675287580861
17,-9.66193814416448
18,2.684319005353716
2,1, 1, 1, 0, 7,30.00,45.00,Tuesday
7,-10.6
8,0.0
9,0.0
10,0.0
11,0.0
12,0.0
13,0.0
14,2.1800012222818228
15,-11.471379467186239
16,-0.5998713445114845
17,-9.68431913258172
18,2.639811313909992
2,1, 1, 1, 0, 7,45.00,60.00,Tuesday
7,-10.6
8,0.0
9,0.0
10,0.0
11,0.0
12,0.0
13,0.0
14,2.137898736913898
15,-11.450593304958643
16,-0.6391266628413632
17,-9.705948421583685
18,2.5956684199876216
2,1, 1, 1, 0, 8, 0.00,15.00,Tuesday
7,-10.45
8,0.0
9,0.0
10,0.0
11,0.0
12,0.0
13,0.0
14,2.095052724564504
15,-11.402106992334689
16,-0.6564776909581269
17,-9.658481742817685
18,2.551509977077212
2,1, 1, 1, 0, 8,15.00,30.00,Tuesday
7,-10.3
8,119.60288781516265
9,1.0
10,22.819555959623899
11,1.0
12,22.819555959623899
13,119.60288781516265
14,2.1658031984151377
15,-9.728873139616143
16,-0.3138417868447618
17,-9.305248508392936
18,2.523886783335281
2,1, 1, 1, 0, 8,30.00,45.00,Tuesday
7,-10.15
8,587.5122454092405
9,1.0
10,109.75755355442667
11,1.0
12,109.75755355442667
13,587.5122454092405
14,2.5457333251313938
15,-3.363814969751619
16,1.1184410604281539
17,-8.07511690976969
18,2.558543309459455
2,1, 1, 1, 0, 8,45.00,60.00,Tuesday
7,-10.0
8,1069.204408054385
9,1.0
10,195.8764694434918
11,1.0
12,195.8764694434918
13,1069.204408054385
14,3.0411435571328555
15,3.1359200500450239
16,2.7274646307345735
17,-6.831850055348809
18,2.660746955057775
2,1, 1, 1, 0, 9, 0.00,15.00,Tuesday
7,-9.725
8,1550.1382694511986
9,1.0
10,278.97248314719988
11,1.0
12,278.97248314719988
13,1550.1382694511986
14,3.4085752177250265
15,8.299744068591139
16,4.244186701759247
17,-5.738827321352517
18,2.813605863467542
2,1, 1, 1, 0, 9,15.00,30.00,Tuesday
7,-9.45
8,2058.0786146223269
9,1.0
10,364.91995730569456
11,1.0
12,364.91995730569456
13,2058.0786146223269
14,3.8184244991697775
15,13.381602347565816
16,5.729605323837291
17,-4.65333327471518
18,3.009069298009348
2,1, 1, 1, 0, 9,30.00,45.00,Tuesday
7,-9.175
8,2395.488783306965
9,1.0
10,420.35879993239237
11,1.0
12,420.35879993239237
13,2395.488783306965
14,4.101843629134759
15,16.139715769861345
16,6.720897593571749
17,-3.9837114996312268
18,3.2275212165451365
2,1, 1, 1, 0, 9,45.00,60.00,Tuesday
7,-8.9
8,2746.2553959394656
9,1.0
10,478.00138373643099
11,1.0
12,478.00138373643099
13,2746.2553959394656
14,4.435514511436497
15,19.134895760030994
16,7.710457133628324
17,-3.290542188495408
18,3.4588224838766985
2,1, 1, 1, 0,10, 0.00,15.00,Tuesday
7,-8.350000000000002
8,3104.9447873644514
9,1.0
10,536.9185644770597
11,1.0
12,536.9185644770597
13,3104.9447873644514
14,4.71284790853761
15,20.253275719736494
16,8.726349247448752
17,-2.5674734984328326
18,3.7035135136790506
2,1, 1, 1, 0,10,15.00,30.00,Tuesday
7,-7.800000000000001
8,3476.4377903691777
9,1.0
10,598.0969199229219
11,1.0
12,598.0969199229219
13,3476.4377903691777
14,5.016370960594283
15,21.506870657829564
16,9.758343605487937
17,-1.8485393630354566
18,3.970304571445544
2,1, 1, 1, 0,10,30.00,45.00,Tuesday
7,-7.25
8,3721.3886472969136
9,1.0
10,637.6133352894237
11,1.0
12,637.6133352894237
13,3721.3886472969136
14,5.249275737886345
15,21.567195457629884
16,10.492864498276447
17,-1.3514636915001575
18,4.245273888305346
2,1, 1, 1, 0,10,45.00,60.00,Tuesday
7,-6.7
8,3962.919632808001
9,1.0
10,676.6412284283772
11,1.0
12,676.6412284283772
13,3962.919632808001
14,5.503583095698542
15,21.727860544921087
16,11.201821450852038
17,-0.8583173890980334
18,4.516902415285102
2,1, 1, 1, 0,11, 0.00,15.00,Tuesday
7,-6.275
8,4200.16450007051
9,1.0
10,715.0112779846514
11,1.0
12,715.0112779846514
13,4200.16450007051
14,5.834402685419014
15,23.825552383147007
16,11.951261815942303
17,-0.13107817133447953
18,4.787342392801053
2,1, 1, 1, 0,11,15.00,30.00,Tuesday
7,-5.85
8,4431.850876436777
9,1.0
10,752.5077794605232
11,1.0
12,752.5077794605232
13,4431.850876436777
14,6.153323494615612
15,25.760667320371789
16,12.691758155425476
17,0.5753970457580522
18,5.060912079453909
2,1, 1, 1, 0,11,30.00,45.00,Tuesday
7,-5.425
8,4365.010574499303
9,1.0
10,742.5988714321785
11,1.0
12,742.5988714321785
13,4365.010574499303
14,6.339999817398018
15,25.61257612527063
16,12.821683564402634
17,0.8595478734213202
18,5.320617598348578
2,1, 1, 1, 0,11,45.00,60.00,Tuesday
7,-5.0
8,4268.426915746345
9,1.0
10,727.8169025450712
11,1.0
12,727.8169025450712
13,4268.426915746345
14,6.522168912946614
15,25.383446169317069
16,12.863567543624072
17,1.1106157527379424
18,5.554051965791844
2,1, 1, 1, 0,12, 0.00,15.00,Tuesday
7,-4.575
8,4101.555864919817
9,1.0
10,700.3759009170325
11,1.0
12,700.3759009170325
13,4101.555864919817
14,6.648378979863522
15,24.640897734844566
16,12.745405477731538
17,1.2971966067666472
18,5.754513029075545
2,1, 1, 1, 0,12,15.00,30.00,Tuesday
7,-4.15
8,3977.06633273884
9,1.0
10,681.6705029034473
11,1.0
12,681.6705029034473
13,3977.06633273884
14,6.796012376739523
15,24.310507899926657
16,12.718129941586995
17,1.5566534789269895
18,5.929598469103894
2,1, 1, 1, 0,12,30.00,45.00,Tuesday
7,-3.7249999999999998
8,3490.494118712908
9,1.0
10,602.01865277251
11,1.0
12,602.01865277251
13,3490.494118712908
14,6.713903461286257
15,21.282202720853353
16,11.901542396955506
17,1.3042840627363149
18,6.058584091157319
2,1, 1, 1, 0,12,45.00,60.00,Tuesday
7,-3.3
8,2850.0663097864755
9,1.0
10,493.55004396206007
11,1.0
12,493.55004396206007
13,2850.0663097864755
14,6.527002492152624
15,17.103788843700163
16,10.614111901528588
17,0.7852557361419486
18,6.118883196098398
2,1, 1, 1, 0,13, 0.00,15.00,Tuesday
7,-3.0249999999999996
8,2351.395510611438
9,1.0
10,412.335026418112
11,1.0
12,412.335026418112
13,2351.395510611438
14,6.3952240967255229
15,14.25943358899302
16,9.598127700299586
17,0.43011761253387706
18,6.124456228572891
2,1, 1, 1, 0,13,15.00,30.00,Tuesday
7,-2.75
8,1720.5836538671252
9,1.0
10,305.94037763660148
11,1.0
12,305.94037763660148
13,1720.5836538671252
14,6.106510863758636
15,10.086168112955594
16,8.191322384738442
17,-0.16758818492712636
18,6.084565093505272
2,1, 1, 1, 0,13,30.00,45.00,Tuesday
7,-2.475
8,1570.0061284965498
9,1.0
10,281.0763483922329
11,1.0
12,281.0763483922329
13,1570.0061284965498
14,6.085439008685262
15,9.5727712067431
16,7.8617262832992769
17,-0.06453085702446515
18,6.032158657909605
2,1, 1, 1, 0,13,45.00,60.00,Tuesday
7,-2.2
8,1422.568739653974
9,1.0
10,256.7721209415886
11,1.0
12,256.7721209415886
13,1422.568739653974
14,6.053193651466542
15,8.966472539901325
16,7.600395538098724
17,0.06306564865951714
18,5.986946339436691
2,1, 1, 1, 0,14, 0.00,15.00,Tuesday
7,-1.9250000000000003
8,1161.5709924589324
9,1.0
10,210.73276284570657
11,1.0
12,210.73276284570657
13,1161.5709924589324
14,5.928460187408405
15,7.418462916352111
16,6.996863530779649
17,-0.044310598651122749
18,5.945994240991542
2,1, 1, 1, 0,14,15.00,30.00,Tuesday
7,-1.6500000000000002
8,1031.0016929418874
9,1.0
10,189.38488290342594
11,1.0
12,189.38488290342594
13,1031.0016929418874
14,5.8984678642599619
15,7.0127110853576319
16,6.723727010431446
17,0.05991930497418707
18,5.910167630926521
2,1, 1, 1, 0,14,30.00,45.00,Tuesday
7,-1.375
8,983.4230783723865
9,1.0
10,179.3940297802914
11,1.0
12,179.3940297802914
13,983.4230783723865
14,5.895952436445689
15,7.13528687534869
16,6.656484149895675
17,0.28251606389693509
18,5.880850776714678
2,1, 1, 1, 0,14,45.00,60.00,Tuesday
7,-1.1
8,935.1808905356265
9,1.0
10,169.43349014176136
11,1.0
12,169.43349014176136
13,935.1808905356265
14,5.891346250351627
15,7.233736088622165
16,6.584569202476416
17,0.5033100500448882
18,5.8579047470792
2,1, 1, 1, 0,15, 0.00,15.00,Tuesday
7,-1.1
8,984.0455103163579
9,1.0
10,178.15692317953907
11,1.0
12,178.15692317953907
13,984.0455103163579
14,5.947133637566017
15,8.050312083852895
16,6.729638409059135
17,0.6420985283270966
18,5.844318980532623
2,1, 1, 1, 0,15,15.00,30.00,Tuesday
7,-1.1
8,924.2804418604435
9,1.0
10,166.40516310952945
11,1.0
12,166.40516310952945
13,924.2804418604435
14,5.902929860274678
15,7.686967985314269
16,6.569424080726776
17,0.5729192341027556
18,5.834628632323765
2,1, 1, 1, 0,15,30.00,45.00,Tuesday
7,-1.1
8,778.9081649685021
9,1.0
10,140.8967369711617
11,1.0
12,140.8967369711617
13,778.9081649685021
14,5.797117596484648
15,6.479800844229146
16,6.1460399853442599
17,0.32533183992410388
18,5.8177803504075149
2,1, 1, 1, 0,15,45.00,60.00,Tuesday
7,-1.1
8,640.624840621952
9,1.0
10,116.57355796743004
11,1.0
12,116.57355796743004
13,640.624840621952
14,5.687216419487437
15,5.268554675897109
16,5.696529888497594
17,0.061003348218946488
18,5.785663196107771
2,1, 1, 1, 0,16, 0.00,15.00,Tuesday
7,-1.1
8,508.1681476718303
9,1.0
10,93.14939272689483
11,1.0
12,93.14939272689483
13,508.1681476718303
14,5.594056459576496
15,4.2177137981829369
16,5.297717283212364
17,-0.1260898359746534
18,5.737558006130194
2,1, 1, 1, 0,16,15.00,30.00,Tuesday
7,-1.1
8,315.2868717729094
9,1.0
10,57.94047897402063
11,1.0
12,57.94047897402063
13,315.2868717729094
14,5.415788466322271
15,2.090822599140184
16,4.706236289409844
17,-0.4838953245797484
18,5.667248517584675
2,1, 1, 1, 0,16,30.00,45.00,Tuesday
7,-1.1
8,244.3295260313908
9,1.0
10,45.38251793443488
11,1.0
12,45.38251793443488
13,244.3295260313908
14,5.347990529141587
15,1.4774597228507814
16,4.46179617886628
17,-0.5685909429124649
18,5.583881476934519
2,1, 1, 1, 0,16,45.00,60.00,Tuesday
7,-1.1
8,170.4904427048772
9,1.0
10,32.02625108222755
11,1.0
12,32.02625108222755
13,170.4904427048772
14,5.244664268304113
15,0.6107245545137621
16,4.224755124747162
17,-0.6662103180741497
18,5.4956797175425049
2,1, 1, 1, 0,17, 0.00,15.00,Tuesday
7,-1.1
8,93.49287675354371
9,1.0
10,17.762198626050539
11,1.0
12,17.762198626050539
13,93.49287675354371
14,5.111989338244247
15,-0.6453644426314706
16,3.929424957183187
17,-0.8850871771069819
18,5.405323169635391
2,1, 1, 1, 0,17,15.00,30.00,Tuesday
7,-1.1
8,0.0
9,0.0
10,0.0
11,0.0
12,0.0
13,0.0
14,4.931118429189599
15,-2.4847015025965626
16,3.5591380033998805
17,-1.199194379548885
18,5.304198835713584
2,1, 1, 1, 0,17,30.00,45.00,Tuesday
7,-1.1
8,0.0
9,0.0
10,0.0
11,0.0
12,0.0
13,0.0
14,4.87864642634811
15,-2.6226249428767489
16,3.4674615575257237
17,-1.2357890961433782
18,5.206252838414346
2,1, 1, 1, 0,17,45.00,60.00,Tuesday
7,-1.1
8,0.0
9,0.0
10,0.0
11,0.0
12,0.0
13,0.0
14,4.811716151120571
15,-2.817331759446992
16,3.413965076713623
17,-1.2640010866520016
18,5.124096740060414
2,1, 1, 1, 0,18, 0.00,15.00,Tuesday
7,-1.25
8,0.0
9,0.0
10,0.0
11,0.0
12,0.0
13,0.0
14,4.756409493704509
15,-2.964678951317106
16,3.3297742381694208
17,-1.4048407186995747
18,5.058774695569617
2,1, 1, 1, 0,18,15.00,30.00,Tuesday
7,-1.4
8,0.0
9,0.0
10,0.0
11,0.0
12,0.0
13,0.0
14,4.70618635919336
15,-3.117063978436675
16,3.2584382357914025
17,-1.5339617243834596
18,5.005568092415879
2,1, 1, 1, 0,18,30.00,45.00,Tuesday
7,-1.5499999999999999
8,0.0
9,0.0
10,0.0
11,0.0
12,0.0
13,0.0
14,4.660155295389148
15,-3.268920347850144
16,3.185965347804995
17,-1.6648791131235612
18,4.959319311636717
2,1, 1, 1, 0,18,45.00,60.00,Tuesday
7,-1.7
8,0.0
9,0.0
10,0.0
11,0.0
12,0.0
13,0.0
14,4.61640150430517
15,-3.42094935209056
16,3.1237429326722578
17,-1.7868655360294952
18,4.916650194778537
2,1, 1, 1, 0,19, 0.00,15.00,Tuesday
7,-1.825
8,0.0
9,0.0
10,0.0
11,0.0
12,0.0
13,0.0
14,4.598774661923089
15,-3.267907650095478
16,3.073768554720459
17,-1.870537956750809
18,4.879452058196682
2,1, 1, 1, 0,19,15.00,30.00,Tuesday
7,-1.9500000000000002
8,0.0
9,0.0
10,0.0
11,0.0
12,0.0
13,0.0
14,4.580301132419813
15,-3.1968783532304334
16,3.0274170358344465
17,-1.9672604814819579
18,4.84939920381302
2,1, 1, 1, 0,19,30.00,45.00,Tuesday
7,-2.075
8,0.0
9,0.0
10,0.0
11,0.0
12,0.0
13,0.0
14,4.556980836363366
15,-3.2695117449093464
16,2.9846079292123024
17,-2.068685762896166
18,4.824883312099704
2,1, 1, 1, 0,19,45.00,60.00,Tuesday
7,-2.2
8,0.0
9,0.0
10,0.0
11,0.0
12,0.0
13,0.0
14,4.536788199172055
15,-3.2435613066633768
16,2.9413757608231778
17,-2.171951025115675
18,4.80285302924486
2,1, 1, 1, 0,20, 0.00,15.00,Tuesday
7,-1.9250000000000003
8,0.0
9,0.0
10,0.0
11,0.0
12,0.0
13,0.0
14,4.533225072732419
15,-2.941456029794016
16,2.988593377583925
17,-1.9586903498042148
18,4.7836196174906109
2,1, 1, 1, 0,20,15.00,30.00,Tuesday
7,-1.6500000000000002
8,0.0
9,0.0
10,0.0
11,0.0
12,0.0
13,0.0
14,4.529498416697988
15,-2.642463216591698
16,3.03665981994925
17,-1.7320507180009486
18,4.767593684867917
2,1, 1, 1, 0,20,30.00,45.00,Tuesday
7,-1.375
8,0.0
9,0.0
10,0.0
11,0.0
12,0.0
13,0.0
14,4.52747391190399
15,-2.3447660277306059
16,3.086185155395583
17,-1.503111304273716
18,4.754367233920916
2,1, 1, 1, 0,20,45.00,60.00,Tuesday
7,-1.1
8,0.0
9,0.0
10,0.0
11,0.0
12,0.0
13,0.0
14,4.526969566225973
15,-2.0483745027644639
16,3.1376712570507836
17,-1.2721919623539862
18,4.743268017999395
2,1, 1, 1, 0,21, 0.00,15.00,Tuesday
7,-1.25
8,0.0
9,0.0
10,0.0
11,0.0
12,0.0
13,0.0
14,4.4832730584751279
15,-2.3332873604358537
16,3.090322676815447
17,-1.389197782355609
18,4.727593049762821
2,1, 1, 1, 0,21,15.00,30.00,Tuesday
7,-1.4
8,0.0
9,0.0
10,0.0
11,0.0
12,0.0
13,0.0
14,4.440793925513015
15,-2.5518435931627359
16,3.035920797680774
17,-1.5092694097913864
18,4.7026395770468218
2,1, 1, 1, 0,21,30.00,45.00,Tuesday
7,-1.5499999999999999
8,0.0
9,0.0
10,0.0
11,0.0
12,0.0
13,0.0
14,4.38454513692072
15,-2.9011696231183348
16,2.9780396249153684
17,-1.6324341223034936
18,4.667334206294334
2,1, 1, 1, 0,21,45.00,60.00,Tuesday
7,-1.7
8,0.0
9,0.0
10,0.0
11,0.0
12,0.0
13,0.0
14,4.322895490825526
15,-3.3587985576601757
16,2.910673372184874
17,-1.7598314606669306
18,4.623708007401922
2,1, 1, 1, 0,22, 0.00,15.00,Tuesday
7,-1.5499999999999999
8,0.0
9,0.0
10,0.0
11,0.0
12,0.0
13,0.0
14,4.332440405864376
15,-2.86451174655027
16,2.9094329379472585
17,-1.6516127184843868
18,4.585595610505547
2,1, 1, 1, 0,22,15.00,30.00,Tuesday
7,-1.4
8,0.0
9,0.0
10,0.0
11,0.0
12,0.0
13,0.0
14,4.332320783200856
15,-2.529810689801678
16,2.932808080600978
17,-1.5295486139543755
18,4.560594125016236
2,1, 1, 1, 0,22,30.00,45.00,Tuesday
7,-1.25
8,0.0
9,0.0
10,0.0
11,0.0
12,0.0
13,0.0
14,4.329506110228161
15,-2.307674984488649
16,2.956585337697561
17,-1.4094128389343155
18,4.546446034933561
2,1, 1, 1, 0,22,45.00,60.00,Tuesday
7,-1.1
8,0.0
9,0.0
10,0.0
11,0.0
12,0.0
13,0.0
14,4.332288814814492
15,-2.0214324560753664
16,2.985345264864918
17,-1.2793526142216934
18,4.538067755482335
2,1, 1, 1, 0,23, 0.00,15.00,Tuesday
7,-1.25
8,0.0
9,0.0
10,0.0
11,0.0
12,0.0
13,0.0
14,4.287466804864144
15,-2.324948501705446
16,2.896743130390689
17,-1.5533600473640946
18,4.524944293916314
2,1, 1, 1, 0,23,15.00,30.00,Tuesday
7,-1.4
8,0.0
9,0.0
10,0.0
11,0.0
12,0.0
13,0.0
14,4.246230706585349
15,-2.6294750447015056
16,2.796935759528992
17,-1.8446710568217669
18,4.501709266028117
2,1, 1, 1, 0,23,30.00,45.00,Tuesday
7,-1.5499999999999999
8,0.0
9,0.0
10,0.0
11,0.0
12,0.0
13,0.0
14,4.200497517275006
15,-2.934690414481719
16,2.696203612470754
17,-2.1361232755492667
18,4.469291917754976
2,1, 1, 1, 0,23,45.00,60.00,Tuesday
7,-1.7
8,0.0
9,0.0
10,0.0
11,0.0
12,0.0
13,0.0
14,4.15092311859316
15,-3.2402460660347636
16,2.591875820396922
17,-2.4280926746568527
18,4.4305797278101048
2,1, 1, 1, 0,24, 0.00,15.00,Tuesday
7,-1.7
8,0.0
9,0.0
10,0.0
11,0.0
12,0.0
13,0.0
14,4.118803915420657
15,-3.2941586561898728
16,2.546869053533669
17,-2.4894209688166599
18,4.391198067352258
2,1, 1, 1, 0,24,15.00,30.00,Tuesday
7,-1.7
8,0.0
9,0.0
10,0.0
11,0.0
12,0.0
13,0.0
14,4.083592653272507
15,-3.3487828357241526
16,2.506030736766718
17,-2.5494302415856397
18,4.354170086656242
2,1, 1, 1, 0,24,30.00,45.00,Tuesday
7,-1.7
8,0.0
9,0.0
10,0.0
11,0.0
12,0.0
13,0.0
14,4.049342921834975
15,-3.403260514424508
16,2.464705856312378
17,-2.6095691005184564
18,4.3195379141320739
2,1, 1, 1, 0,24,45.00,60.00,Tuesday
7,-1.7
8,0.0
9,0.0
10,0.0
11,0.0
12,0.0
13,0.0
14,4.01582880332814
15,-3.4577409927765307
16,2.424200115328915
17,-2.669442429163496
18,4.286345786625037
End of Data
 Number of Records Written=        1152
